<?xml version="1.0" encoding="UTF-8"?>

<!-- generated on 2026-01-08T17:23:49.880886+01:00 by Eclipse SUMO GUI 1.25.0
<sumoConfiguration xmlns:xsi="http://www.w3.org/2001/XMLSchema-instance" xsi:noNamespaceSchemaLocation="http://sumo.dlr.de/xsd/sumoConfiguration.xsd">

    <input>
        <net-file value="ff.net.xml"/>
        <route-files value="ff_heterogeneous.rou.xml"/>
    </input>

    <output>
        <summary-output value="results_summary.xml"/>
        <tripinfo-output value="results_tripinfo.xml"/>
    </output>

    <time>
        <begin value="0"/>
        <end value="3600"/>
    </time>

    <traci_server>
        <remote-port value="58972"/>
    </traci_server>

    <gui_only>
        <quit-on-end value="true"/>
    </gui_only>

</sumoConfiguration>
-->

<tripinfos xmlns:xsi="http://www.w3.org/2001/XMLSchema-instance" xsi:noNamespaceSchemaLocation="http://sumo.dlr.de/xsd/tripinfo_file.xsd">
    <tripinfo id="f1440.0" depart="21.00" departLane="D1E1_0" departPos="99.13" departSpeed="13.90" departDelay="0.00" arrival="43.00" arrivalLane="E1F1_0" arrivalPos="186.40" arrivalSpeed="12.94" duration="22.00" routeLength="287.27" waitingTime="0.00" waitingCount="0" stopTime="0.00" timeLoss="0.58" rerouteNo="0" devices="tripinfo_f1440.0 routing_f1440.0" vType="car" speedFactor="1.03" vaporized=""/>
    <tripinfo id="f226.0" depart="22.00" departLane="F1E1_1" departPos="55.23" departSpeed="13.29" departDelay="0.00" arrival="51.00" arrivalLane="E1E0_2" arrivalPos="186.40" arrivalSpeed="12.45" duration="29.00" routeLength="342.08" waitingTime="0.00" waitingCount="0" stopTime="0.00" timeLoss="1.81" rerouteNo="0" devices="tripinfo_f226.0 routing_f226.0" vType="car" speedFactor="0.96" vaporized=""/>
    <tripinfo id="f1395.0" depart="30.00" departLane="D1C1_2" departPos="67.51" departSpeed="11.81" departDelay="0.00" arrival="60.00" arrivalLane="C1C0_2" arrivalPos="186.40" arrivalSpeed="11.44" duration="30.00" routeLength="316.20" waitingTime="0.00" waitingCount="0" stopTime="0.00" timeLoss="1.99" rerouteNo="0" devices="tripinfo_f1395.0 routing_f1395.0" vType="car" speedFactor="0.85" vaporized=""/>
    <tripinfo id="f1578.0" depart="46.00" departLane="D4C4_1" departPos="162.55" departSpeed="7.37" departDelay="0.00" arrival="65.00" arrivalLane="C4C5_0" arrivalPos="186.40" arrivalSpeed="12.73" duration="19.00" routeLength="205.68" waitingTime="0.00" waitingCount="0" stopTime="0.00" timeLoss="2.78" rerouteNo="0" devices="tripinfo_f1578.0 routing_f1578.0" vType="car" speedFactor="0.98" vaporized=""/>
    <tripinfo id="f113.0" depart="41.00" departLane="A4B4_0" departPos="157.26" departSpeed="12.60" departDelay="0.00" arrival="72.00" arrivalLane="B4B5_2" arrivalPos="186.40" arrivalSpeed="12.02" duration="31.00" routeLength="240.05" waitingTime="3.00" waitingCount="1" stopTime="0.00" timeLoss="10.65" rerouteNo="0" devices="tripinfo_f113.0 routing_f113.0" vType="car" speedFactor="0.91" vaporized=""/>
    <tripinfo id="f1620.0" depart="12.00" departLane="E1D1_1" departPos="15.38" departSpeed="13.08" departDelay="0.00" arrival="89.00" arrivalLane="B1B0_2" arrivalPos="186.40" arrivalSpeed="12.97" duration="77.00" routeLength="768.33" waitingTime="9.00" waitingCount="1" stopTime="0.00" timeLoss="17.34" rerouteNo="1" devices="tripinfo_f1620.0 routing_f1620.0" vType="car" speedFactor="0.94" vaporized=""/>
    <tripinfo id="f63.0" depart="44.00" departLane="A1B1_2" departPos="21.37" departSpeed="13.51" departDelay="0.00" arrival="91.00" arrivalLane="C1C0_0" arrivalPos="186.40" arrivalSpeed="13.40" duration="47.00" routeLength="560.46" waitingTime="0.00" waitingCount="0" stopTime="0.00" timeLoss="4.28" rerouteNo="1" devices="tripinfo_f63.0 routing_f63.0" vType="car" speedFactor="0.97" vaporized=""/>
    <tripinfo id="f211.0" depart="1.00" departLane="F2E2_2" departPos="101.64" departSpeed="13.90" departDelay="0.00" arrival="106.00" arrivalLane="E1E0_0" arrivalPos="186.40" arrivalSpeed="13.20" duration="105.00" routeLength="495.67" waitingTime="53.00" waitingCount="2" stopTime="0.00" timeLoss="68.47" rerouteNo="1" devices="tripinfo_f211.0 routing_f211.0" vType="car" speedFactor="1.01" vaporized=""/>
    <tripinfo id="f2509.0" depart="19.00" departLane="C2C3_2" departPos="72.09" departSpeed="13.82" departDelay="0.00" arrival="106.00" arrivalLane="D2D1_1" arrivalPos="172.80" arrivalSpeed="13.33" duration="87.00" routeLength="664.37" waitingTime="19.00" waitingCount="2" stopTime="0.00" timeLoss="36.64" rerouteNo="1" devices="tripinfo_f2509.0 routing_f2509.0" vType="car" speedFactor="0.99" vaporized=""/>
    <tripinfo id="f1740.0" depart="77.00" departLane="E3E4_0" departPos="91.68" departSpeed="13.90" departDelay="1.00" arrival="107.00" arrivalLane="E4E5_0" arrivalPos="186.40" arrivalSpeed="12.97" duration="30.00" routeLength="294.72" waitingTime="1.00" waitingCount="1" stopTime="0.00" timeLoss="8.45" rerouteNo="0" devices="tripinfo_f1740.0 routing_f1740.0" vType="car" speedFactor="1.01" vaporized=""/>
    <tripinfo id="f2500.0" depart="86.00" departLane="C2C3_0" departPos="73.30" departSpeed="13.38" departDelay="0.00" arrival="110.00" arrivalLane="C3C4_1" arrivalPos="172.80" arrivalSpeed="12.98" duration="24.00" routeLength="299.50" waitingTime="0.00" waitingCount="0" stopTime="0.00" timeLoss="0.88" rerouteNo="0" devices="tripinfo_f2500.0 routing_f2500.0" vType="car" speedFactor="0.96" vaporized=""/>
    <tripinfo id="f96.0" depart="69.00" departLane="A3B3_2" departPos="46.49" departSpeed="13.90" departDelay="0.00" arrival="114.00" arrivalLane="B2A2_0" arrivalPos="186.40" arrivalSpeed="13.83" duration="45.00" routeLength="517.17" waitingTime="0.00" waitingCount="0" stopTime="0.00" timeLoss="5.92" rerouteNo="1" devices="tripinfo_f96.0 routing_f96.0" vType="car" speedFactor="1.06" vaporized=""/>
    <tripinfo id="f83.0" depart="54.00" departLane="A2B2_2" departPos="5.87" departSpeed="13.90" departDelay="0.00" arrival="121.00" arrivalLane="B4B5_1" arrivalPos="186.40" arrivalSpeed="13.79" duration="67.00" routeLength="791.44" waitingTime="0.00" waitingCount="0" stopTime="0.00" timeLoss="8.93" rerouteNo="1" devices="tripinfo_f83.0 routing_f83.0" vType="car" speedFactor="1.01" vaporized=""/>
    <tripinfo id="f3069.0" depart="10.00" departLane="D2C2_0" departPos="21.67" departSpeed="13.77" departDelay="0.00" arrival="124.00" arrivalLane="C4D4_1" arrivalPos="172.80" arrivalSpeed="10.68" duration="114.00" routeLength="714.79" waitingTime="46.00" waitingCount="1" stopTime="0.00" timeLoss="60.31" rerouteNo="1" devices="tripinfo_f3069.0 routing_f3069.0" vType="car" speedFactor="0.99" vaporized=""/>
    <tripinfo id="f1659.0" depart="51.00" departLane="E2D2_0" departPos="39.92" departSpeed="12.39" departDelay="0.00" arrival="125.00" arrivalLane="D4D5_0" arrivalPos="186.40" arrivalSpeed="11.39" duration="74.00" routeLength="728.31" waitingTime="2.00" waitingCount="1" stopTime="0.00" timeLoss="13.55" rerouteNo="1" devices="tripinfo_f1659.0 routing_f1659.0" vType="car" speedFactor="0.89" vaporized=""/>
    <tripinfo id="f1289.0" depart="92.00" departLane="C3B3_0" departPos="134.83" departSpeed="12.70" departDelay="0.00" arrival="131.00" arrivalLane="B4B5_0" arrivalPos="186.40" arrivalSpeed="12.61" duration="39.00" routeLength="433.40" waitingTime="0.00" waitingCount="0" stopTime="0.00" timeLoss="4.18" rerouteNo="1" devices="tripinfo_f1289.0 routing_f1289.0" vType="car" speedFactor="0.91" vaporized=""/>
    <tripinfo id="f32.0" depart="42.00" departLane="C0C1_1" departPos="28.58" departSpeed="12.70" departDelay="0.00" arrival="136.00" arrivalLane="D1D0_0" arrivalPos="186.40" arrivalSpeed="12.65" duration="94.00" routeLength="535.08" waitingTime="30.00" waitingCount="3" stopTime="0.00" timeLoss="49.52" rerouteNo="1" devices="tripinfo_f32.0 routing_f32.0" vType="car" speedFactor="0.91" vaporized=""/>
    <tripinfo id="f67.0" depart="58.00" departLane="A1B1_0" departPos="66.55" departSpeed="13.33" departDelay="0.00" arrival="139.00" arrivalLane="B4A4_2" arrivalPos="186.40" arrivalSpeed="13.29" duration="81.00" routeLength="928.07" waitingTime="1.00" waitingCount="1" stopTime="0.00" timeLoss="9.56" rerouteNo="1" devices="tripinfo_f67.0 routing_f67.0" vType="car" speedFactor="0.96" vaporized=""/>
    <tripinfo id="f110.0" depart="10.00" departLane="A4B4_2" departPos="29.66" departSpeed="13.90" departDelay="0.00" arrival="140.00" arrivalLane="B1A1_0" arrivalPos="186.40" arrivalSpeed="13.09" duration="130.00" routeLength="934.00" waitingTime="39.00" waitingCount="2" stopTime="0.00" timeLoss="61.35" rerouteNo="1" devices="tripinfo_f110.0 routing_f110.0" vType="car" speedFactor="1.05" vaporized=""/>
    <tripinfo id="f1174.0" depart="40.00" departLane="C1B1_1" departPos="67.99" departSpeed="13.02" departDelay="0.00" arrival="140.00" arrivalLane="B2A2_2" arrivalPos="186.40" arrivalSpeed="12.60" duration="100.00" routeLength="497.55" waitingTime="50.00" waitingCount="1" stopTime="0.00" timeLoss="59.76" rerouteNo="1" devices="tripinfo_f1174.0 routing_f1174.0" vType="car" speedFactor="0.94" vaporized=""/>
    <tripinfo id="f225.0" depart="69.00" departLane="F2E2_0" departPos="131.34" departSpeed="1.16" departDelay="0.00" arrival="157.00" arrivalLane="E1F1_2" arrivalPos="186.40" arrivalSpeed="13.90" duration="88.00" routeLength="463.28" waitingTime="43.00" waitingCount="1" stopTime="0.00" timeLoss="53.72" rerouteNo="1" devices="tripinfo_f225.0 routing_f225.0" vType="car" speedFactor="1.03" vaporized=""/>
    <tripinfo id="f1537.0" depart="20.00" departLane="D3D4_1" departPos="85.14" departSpeed="13.90" departDelay="0.00" arrival="158.00" arrivalLane="E1E0_0" arrivalPos="186.40" arrivalSpeed="13.61" duration="138.00" routeLength="1064.92" waitingTime="37.00" waitingCount="2" stopTime="0.00" timeLoss="59.55" rerouteNo="1" devices="tripinfo_f1537.0 routing_f1537.0" vType="car" speedFactor="1.10" vaporized=""/>
    <tripinfo id="f181.0" depart="48.00" departLane="F4E4_1" departPos="22.26" departSpeed="13.90" departDelay="0.00" arrival="158.00" arrivalLane="E1E0_1" arrivalPos="186.40" arrivalSpeed="13.27" duration="110.00" routeLength="975.05" waitingTime="19.00" waitingCount="2" stopTime="0.00" timeLoss="38.91" rerouteNo="1" devices="tripinfo_f181.0 routing_f181.0" vType="car" speedFactor="1.02" vaporized=""/>
    <tripinfo id="f177.0" depart="154.00" departLane="E5E4_2" departPos="148.86" departSpeed="13.90" departDelay="0.00" arrival="174.00" arrivalLane="E4F4_2" arrivalPos="186.40" arrivalSpeed="13.60" duration="20.00" routeLength="248.45" waitingTime="0.00" waitingCount="0" stopTime="0.00" timeLoss="1.36" rerouteNo="0" devices="tripinfo_f177.0 routing_f177.0" vType="car" speedFactor="1.04" vaporized=""/>
    <tripinfo id="f812.0" depart="1.00" departLane="E5E4_1" departPos="86.89" departSpeed="13.90" departDelay="0.00" arrival="177.00" arrivalLane="E3D3_0" arrivalPos="172.80" arrivalSpeed="4.66" duration="176.00" routeLength="481.34" waitingTime="126.00" waitingCount="2" stopTime="0.00" timeLoss="140.86" rerouteNo="1" devices="tripinfo_f812.0 routing_f812.0" vType="car" speedFactor="1.08" vaporized=""/>
    <tripinfo id="f180.0" depart="17.00" departLane="E5E4_1" departPos="33.36" departSpeed="12.12" departDelay="0.00" arrival="178.00" arrivalLane="E1F1_2" arrivalPos="186.40" arrivalSpeed="11.93" duration="161.00" routeLength="963.95" waitingTime="65.00" waitingCount="2" stopTime="0.00" timeLoss="80.02" rerouteNo="1" devices="tripinfo_f180.0 routing_f180.0" vType="car" speedFactor="0.87" vaporized=""/>
    <tripinfo id="f3305.0" depart="11.00" departLane="D3D2_2" departPos="38.56" departSpeed="12.87" departDelay="0.00" arrival="179.00" arrivalLane="D1C1_0" arrivalPos="172.80" arrivalSpeed="2.78" duration="168.00" routeLength="516.07" waitingTime="111.00" waitingCount="2" stopTime="0.00" timeLoss="126.67" rerouteNo="1" devices="tripinfo_f3305.0 routing_f3305.0" vType="car" speedFactor="0.93" vaporized=""/>
    <tripinfo id="f160.0" depart="129.00" departLane="D5D4_0" departPos="161.57" departSpeed="9.94" departDelay="0.00" arrival="181.00" arrivalLane="C4C5_0" arrivalPos="186.40" arrivalSpeed="11.19" duration="52.00" routeLength="402.09" waitingTime="6.00" waitingCount="1" stopTime="0.00" timeLoss="15.07" rerouteNo="1" devices="tripinfo_f160.0 routing_f160.0" vType="car" speedFactor="0.84" vaporized=""/>
    <tripinfo id="f160.1" depart="143.00" departLane="D5D4_0" departPos="182.47" departSpeed="3.93" departDelay="0.00" arrival="183.00" arrivalLane="C4C5_0" arrivalPos="186.40" arrivalSpeed="13.54" duration="40.00" routeLength="381.19" waitingTime="0.00" waitingCount="0" stopTime="0.00" timeLoss="10.60" rerouteNo="1" devices="tripinfo_f160.1 routing_f160.1" vType="car" speedFactor="1.01" vaporized=""/>
    <tripinfo id="f911.0" depart="88.00" departLane="F3E3_2" departPos="114.22" departSpeed="13.90" departDelay="0.00" arrival="186.00" arrivalLane="E4D4_1" arrivalPos="172.80" arrivalSpeed="5.95" duration="98.00" routeLength="451.32" waitingTime="44.00" waitingCount="2" stopTime="0.00" timeLoss="64.77" rerouteNo="1" devices="tripinfo_f911.0 routing_f911.0" vType="car" speedFactor="1.08" vaporized=""/>
    <tripinfo id="f142.0" depart="127.00" departLane="C5C4_0" departPos="104.97" departSpeed="13.83" departDelay="0.00" arrival="190.00" arrivalLane="B3A3_0" arrivalPos="186.40" arrivalSpeed="13.71" duration="63.00" routeLength="676.86" waitingTime="2.00" waitingCount="1" stopTime="0.00" timeLoss="13.37" rerouteNo="1" devices="tripinfo_f142.0 routing_f142.0" vType="car" speedFactor="1.00" vaporized=""/>
    <tripinfo id="f1510.0" depart="47.00" departLane="D3C3_0" departPos="69.69" departSpeed="13.90" departDelay="0.00" arrival="193.00" arrivalLane="B2A2_0" arrivalPos="186.40" arrivalSpeed="13.71" duration="146.00" routeLength="695.85" waitingTime="79.00" waitingCount="2" stopTime="0.00" timeLoss="94.54" rerouteNo="1" devices="tripinfo_f1510.0 routing_f1510.0" vType="car" speedFactor="1.09" vaporized=""/>
    <tripinfo id="f340.0" depart="50.00" departLane="C0C1_1" departPos="20.44" departSpeed="13.90" departDelay="0.00" arrival="193.00" arrivalLane="B2B3_0" arrivalPos="172.80" arrivalSpeed="13.23" duration="143.00" routeLength="745.10" waitingTime="58.00" waitingCount="2" stopTime="0.00" timeLoss="87.99" rerouteNo="1" devices="tripinfo_f340.0 routing_f340.0" vType="car" speedFactor="1.04" vaporized=""/>
    <tripinfo id="f1656.0" depart="51.00" departLane="E2D2_2" departPos="38.35" departSpeed="13.90" departDelay="0.00" arrival="193.00" arrivalLane="B4A4_0" arrivalPos="186.40" arrivalSpeed="13.05" duration="142.00" routeLength="1106.33" waitingTime="39.00" waitingCount="1" stopTime="0.00" timeLoss="59.89" rerouteNo="1" devices="tripinfo_f1656.0 routing_f1656.0" vType="car" speedFactor="1.02" vaporized=""/>
    <tripinfo id="f1549.0" depart="76.00" departLane="D3D4_0" departPos="73.07" departSpeed="13.90" departDelay="0.00" arrival="193.00" arrivalLane="E4F4_0" arrivalPos="186.40" arrivalSpeed="13.02" duration="117.00" routeLength="495.16" waitingTime="72.00" waitingCount="1" stopTime="0.00" timeLoss="80.78" rerouteNo="1" devices="tripinfo_f1549.0 routing_f1549.0" vType="car" speedFactor="1.23" vaporized=""/>
    <tripinfo id="f144.0" depart="147.00" departLane="C5C4_1" departPos="24.62" departSpeed="13.90" departDelay="0.00" arrival="193.00" arrivalLane="B4B5_0" arrivalPos="186.40" arrivalSpeed="13.53" duration="46.00" routeLength="539.04" waitingTime="0.00" waitingCount="0" stopTime="0.00" timeLoss="5.89" rerouteNo="1" devices="tripinfo_f144.0 routing_f144.0" vType="car" speedFactor="1.11" vaporized=""/>
    <tripinfo id="f1010.0" depart="47.00" departLane="B1B2_1" departPos="98.25" departSpeed="13.90" departDelay="0.00" arrival="194.00" arrivalLane="D1D0_0" arrivalPos="186.40" arrivalSpeed="13.82" duration="147.00" routeLength="830.95" waitingTime="63.00" waitingCount="2" stopTime="0.00" timeLoss="84.44" rerouteNo="1" devices="tripinfo_f1010.0 routing_f1010.0" vType="car" speedFactor="1.01" vaporized=""/>
    <tripinfo id="f279.0" depart="54.00" departLane="E0E1_2" departPos="37.64" departSpeed="12.59" departDelay="0.00" arrival="194.00" arrivalLane="E1D1_1" arrivalPos="172.80" arrivalSpeed="10.12" duration="140.00" routeLength="346.07" waitingTime="86.00" waitingCount="3" stopTime="0.00" timeLoss="111.41" rerouteNo="0" devices="tripinfo_f279.0 routing_f279.0" vType="car" speedFactor="0.91" vaporized=""/>
    <tripinfo id="f586.0" depart="72.00" departLane="A4B4_2" departPos="126.57" departSpeed="13.90" departDelay="0.00" arrival="194.00" arrivalLane="B4C4_1" arrivalPos="172.80" arrivalSpeed="13.00" duration="122.00" routeLength="259.83" waitingTime="95.00" waitingCount="1" stopTime="0.00" timeLoss="102.62" rerouteNo="0" devices="tripinfo_f586.0 routing_f586.0" vType="car" speedFactor="1.01" vaporized=""/>
    <tripinfo id="f804.0" depart="102.00" departLane="E5E4_0" departPos="25.68" departSpeed="13.90" departDelay="0.00" arrival="194.00" arrivalLane="D4C4_0" arrivalPos="172.80" arrivalSpeed="11.69" duration="92.00" routeLength="542.55" waitingTime="41.00" waitingCount="1" stopTime="0.00" timeLoss="52.60" rerouteNo="1" devices="tripinfo_f804.0 routing_f804.0" vType="car" speedFactor="1.06" vaporized=""/>
    <tripinfo id="f1440.1" depart="107.00" departLane="D1E1_0" departPos="157.10" departSpeed="9.73" departDelay="0.00" arrival="194.00" arrivalLane="E1F1_0" arrivalPos="186.40" arrivalSpeed="12.70" duration="87.00" routeLength="229.30" waitingTime="61.00" waitingCount="1" stopTime="0.00" timeLoss="69.18" rerouteNo="0" devices="tripinfo_f1440.1 routing_f1440.1" vType="car" speedFactor="0.97" vaporized=""/>
    <tripinfo id="f1070.0" depart="0.00" departLane="B2B3_2" departPos="128.43" departSpeed="7.92" departDelay="0.00" arrival="195.00" arrivalLane="E3F3_0" arrivalPos="186.40" arrivalSpeed="12.18" duration="195.00" routeLength="839.80" waitingTime="111.00" waitingCount="2" stopTime="0.00" timeLoss="128.83" rerouteNo="1" devices="tripinfo_f1070.0 routing_f1070.0" vType="car" speedFactor="0.94" vaporized=""/>
    <tripinfo id="f221.0" depart="19.00" departLane="F2E2_2" departPos="114.66" departSpeed="13.90" departDelay="0.00" arrival="197.00" arrivalLane="D4D5_0" arrivalPos="186.40" arrivalSpeed="13.78" duration="178.00" routeLength="846.31" waitingTime="86.00" waitingCount="3" stopTime="0.00" timeLoss="114.65" rerouteNo="1" devices="tripinfo_f221.0 routing_f221.0" vType="car" speedFactor="1.01" vaporized=""/>
    <tripinfo id="f2748.0" depart="160.00" departLane="C3D3_0" departPos="144.22" departSpeed="8.54" departDelay="0.00" arrival="198.00" arrivalLane="D3D2_1" arrivalPos="172.80" arrivalSpeed="11.63" duration="38.00" routeLength="210.41" waitingTime="12.00" waitingCount="1" stopTime="0.00" timeLoss="21.76" rerouteNo="0" devices="tripinfo_f2748.0 routing_f2748.0" vType="car" speedFactor="1.21" vaporized=""/>
    <tripinfo id="f230.0" depart="14.00" departLane="F1E1_2" departPos="57.37" departSpeed="13.90" departDelay="0.00" arrival="209.00" arrivalLane="B1A1_0" arrivalPos="186.40" arrivalSpeed="13.08" duration="195.00" routeLength="942.63" waitingTime="117.00" waitingCount="1" stopTime="0.00" timeLoss="126.32" rerouteNo="1" devices="tripinfo_f230.0 routing_f230.0" vType="car" speedFactor="1.02" vaporized=""/>
    <tripinfo id="f515.0" depart="48.00" departLane="A2B2_1" departPos="1.37" departSpeed="13.43" departDelay="0.00" arrival="209.00" arrivalLane="D3E3_0" arrivalPos="172.80" arrivalSpeed="13.06" duration="161.00" routeLength="964.17" waitingTime="75.00" waitingCount="1" stopTime="0.00" timeLoss="86.70" rerouteNo="1" devices="tripinfo_f515.0 routing_f515.0" vType="car" speedFactor="0.97" vaporized=""/>
    <tripinfo id="f4047.0" depart="189.00" departLane="E0E1_0" departPos="143.30" departSpeed="13.90" departDelay="0.00" arrival="210.00" arrivalLane="E1F1_0" arrivalPos="186.40" arrivalSpeed="13.16" duration="21.00" routeLength="238.53" waitingTime="0.00" waitingCount="0" stopTime="0.00" timeLoss="3.06" rerouteNo="0" devices="tripinfo_f4047.0 routing_f4047.0" vType="car" speedFactor="1.11" vaporized=""/>
    <tripinfo id="f230.1" depart="21.00" departLane="F1E1_2" departPos="132.48" departSpeed="12.51" departDelay="0.00" arrival="211.00" arrivalLane="B1A1_0" arrivalPos="186.40" arrivalSpeed="12.35" duration="190.00" routeLength="867.52" waitingTime="112.00" waitingCount="1" stopTime="0.00" timeLoss="120.63" rerouteNo="1" devices="tripinfo_f230.1 routing_f230.1" vType="car" speedFactor="0.90" vaporized=""/>
    <tripinfo id="f45.0" depart="125.00" departLane="C0C1_1" departPos="94.50" departSpeed="13.46" departDelay="0.00" arrival="211.00" arrivalLane="E1F1_1" arrivalPos="186.40" arrivalSpeed="13.19" duration="86.00" routeLength="687.33" waitingTime="21.00" waitingCount="1" stopTime="0.00" timeLoss="34.39" rerouteNo="1" devices="tripinfo_f45.0 routing_f45.0" vType="car" speedFactor="0.97" vaporized=""/>
    <tripinfo id="f1009.0" depart="46.00" departLane="B1B2_1" departPos="32.92" departSpeed="13.90" departDelay="0.00" arrival="212.00" arrivalLane="E1E0_0" arrivalPos="186.40" arrivalSpeed="13.22" duration="166.00" routeLength="1096.28" waitingTime="60.00" waitingCount="2" stopTime="0.00" timeLoss="84.26" rerouteNo="1" devices="tripinfo_f1009.0 routing_f1009.0" vType="car" speedFactor="1.03" vaporized=""/>
    <tripinfo id="f103.0" depart="12.00" departLane="A3B3_1" departPos="44.99" departSpeed="12.20" departDelay="0.00" arrival="213.00" arrivalLane="E3F3_0" arrivalPos="186.40" arrivalSpeed="11.47" duration="201.00" routeLength="955.01" waitingTime="107.00" waitingCount="2" stopTime="0.00" timeLoss="122.56" rerouteNo="1" devices="tripinfo_f103.0 routing_f103.0" vType="car" speedFactor="0.88" vaporized=""/>
    <tripinfo id="f1279.0" depart="58.00" departLane="C2D2_2" departPos="4.60" departSpeed="12.03" departDelay="0.00" arrival="213.00" arrivalLane="E2F2_0" arrivalPos="186.40" arrivalSpeed="11.09" duration="155.00" routeLength="581.80" waitingTime="99.00" waitingCount="1" stopTime="0.00" timeLoss="106.04" rerouteNo="1" devices="tripinfo_f1279.0 routing_f1279.0" vType="car" speedFactor="0.87" vaporized=""/>
    <tripinfo id="f59.0" depart="4.00" departLane="B0B1_1" departPos="163.21" departSpeed="11.54" departDelay="0.00" arrival="214.00" arrivalLane="E2F2_1" arrivalPos="186.40" arrivalSpeed="11.08" duration="210.00" routeLength="997.76" waitingTime="103.00" waitingCount="2" stopTime="0.00" timeLoss="120.84" rerouteNo="1" devices="tripinfo_f59.0 routing_f59.0" vType="car" speedFactor="0.83" vaporized=""/>
    <tripinfo id="f44.1" depart="87.00" departLane="C0C1_0" departPos="96.74" departSpeed="13.90" departDelay="0.00" arrival="214.00" arrivalLane="E2F2_0" arrivalPos="186.40" arrivalSpeed="13.41" duration="127.00" routeLength="885.09" waitingTime="35.00" waitingCount="1" stopTime="0.00" timeLoss="62.80" rerouteNo="1" devices="tripinfo_f44.1 routing_f44.1" vType="car" speedFactor="1.00" vaporized=""/>
    <tripinfo id="f3049.0" depart="110.00" departLane="D2C2_2" departPos="27.57" departSpeed="12.89" departDelay="0.00" arrival="215.00" arrivalLane="B2B3_1" arrivalPos="172.80" arrivalSpeed="9.74" duration="105.00" routeLength="527.06" waitingTime="49.00" waitingCount="1" stopTime="0.00" timeLoss="62.60" rerouteNo="1" devices="tripinfo_f3049.0 routing_f3049.0" vType="car" speedFactor="0.93" vaporized=""/>
    <tripinfo id="f1670.0" depart="89.00" departLane="E2E1_1" departPos="161.29" departSpeed="8.01" departDelay="0.00" arrival="216.00" arrivalLane="B2A2_1" arrivalPos="186.40" arrivalSpeed="13.31" duration="127.00" routeLength="986.08" waitingTime="19.00" waitingCount="3" stopTime="0.00" timeLoss="53.22" rerouteNo="1" devices="tripinfo_f1670.0 routing_f1670.0" vType="car" speedFactor="0.99" vaporized=""/>
    <tripinfo id="f2612.0" depart="116.00" departLane="C3B3_2" departPos="24.45" departSpeed="13.90" departDelay="0.00" arrival="216.00" arrivalLane="D4E4_1" arrivalPos="172.80" arrivalSpeed="13.27" duration="100.00" routeLength="912.01" waitingTime="14.00" waitingCount="1" stopTime="0.00" timeLoss="33.34" rerouteNo="1" devices="tripinfo_f2612.0 routing_f2612.0" vType="car" speedFactor="1.06" vaporized=""/>
    <tripinfo id="f1558.0" depart="57.00" departLane="D3E3_0" departPos="127.76" departSpeed="13.90" departDelay="0.00" arrival="223.00" arrivalLane="B2A2_0" arrivalPos="186.40" arrivalSpeed="13.53" duration="166.00" routeLength="1022.30" waitingTime="76.00" waitingCount="1" stopTime="0.00" timeLoss="90.79" rerouteNo="1" devices="tripinfo_f1558.0 routing_f1558.0" vType="car" speedFactor="1.06" vaporized=""/>
    <tripinfo id="f174.0" depart="14.00" departLane="E5E4_1" departPos="174.29" departSpeed="8.30" departDelay="0.00" arrival="224.00" arrivalLane="B4B5_0" arrivalPos="186.40" arrivalSpeed="13.06" duration="210.00" routeLength="789.37" waitingTime="136.00" waitingCount="2" stopTime="0.00" timeLoss="151.69" rerouteNo="1" devices="tripinfo_f174.0 routing_f174.0" vType="car" speedFactor="1.16" vaporized=""/>
    <tripinfo id="f46.0" depart="55.00" departLane="B0B1_0" departPos="101.52" departSpeed="13.90" departDelay="0.00" arrival="224.00" arrivalLane="E1E0_0" arrivalPos="186.40" arrivalSpeed="13.74" duration="169.00" routeLength="862.14" waitingTime="87.00" waitingCount="3" stopTime="0.00" timeLoss="105.64" rerouteNo="1" devices="tripinfo_f46.0 routing_f46.0" vType="car" speedFactor="1.10" vaporized=""/>
    <tripinfo id="f62.0" depart="60.00" departLane="A1B1_2" departPos="73.94" departSpeed="12.48" departDelay="0.00" arrival="224.00" arrivalLane="D1D0_0" arrivalPos="186.40" arrivalSpeed="13.21" duration="164.00" routeLength="707.88" waitingTime="102.00" waitingCount="1" stopTime="0.00" timeLoss="112.24" rerouteNo="1" devices="tripinfo_f62.0 routing_f62.0" vType="car" speedFactor="1.10" vaporized=""/>
    <tripinfo id="f1762.0" depart="73.00" departLane="E4E3_1" departPos="47.39" departSpeed="13.90" departDelay="0.00" arrival="226.00" arrivalLane="D1D0_2" arrivalPos="186.40" arrivalSpeed="13.15" duration="153.00" routeLength="918.15" waitingTime="70.00" waitingCount="2" stopTime="0.00" timeLoss="86.07" rerouteNo="1" devices="tripinfo_f1762.0 routing_f1762.0" vType="car" speedFactor="1.07" vaporized=""/>
    <tripinfo id="f1667.0" depart="103.00" departLane="E2E1_0" departPos="151.42" departSpeed="11.63" departDelay="0.00" arrival="226.00" arrivalLane="C1C0_2" arrivalPos="186.40" arrivalSpeed="12.99" duration="123.00" routeLength="614.12" waitingTime="60.00" waitingCount="2" stopTime="0.00" timeLoss="76.98" rerouteNo="1" devices="tripinfo_f1667.0 routing_f1667.0" vType="car" speedFactor="1.03" vaporized=""/>
    <tripinfo id="f1236.0" depart="123.00" departLane="C2C1_1" departPos="57.89" departSpeed="13.90" departDelay="0.00" arrival="226.00" arrivalLane="B1B0_2" arrivalPos="186.40" arrivalSpeed="12.96" duration="103.00" routeLength="507.65" waitingTime="55.00" waitingCount="1" stopTime="0.00" timeLoss="65.00" rerouteNo="1" devices="tripinfo_f1236.0 routing_f1236.0" vType="car" speedFactor="1.04" vaporized=""/>
    <tripinfo id="f1920.0" depart="45.00" departLane="B2B3_1" departPos="33.75" departSpeed="13.90" departDelay="0.00" arrival="227.00" arrivalLane="B2B1_2" arrivalPos="172.80" arrivalSpeed="13.00" duration="182.00" routeLength="881.85" waitingTime="98.00" waitingCount="1" stopTime="0.00" timeLoss="115.85" rerouteNo="1" devices="tripinfo_f1920.0 routing_f1920.0" vType="car" speedFactor="1.06" vaporized=""/>
    <tripinfo id="f174.1" depart="51.00" departLane="E5E4_1" departPos="42.94" departSpeed="13.90" departDelay="1.00" arrival="227.00" arrivalLane="B4B5_0" arrivalPos="186.40" arrivalSpeed="13.07" duration="176.00" routeLength="920.72" waitingTime="84.00" waitingCount="3" stopTime="0.00" timeLoss="108.35" rerouteNo="1" devices="tripinfo_f174.1 routing_f174.1" vType="car" speedFactor="1.00" vaporized=""/>
    <tripinfo id="f897.0" depart="112.00" departLane="F3E3_0" departPos="120.98" departSpeed="13.90" departDelay="0.00" arrival="227.00" arrivalLane="D3D2_2" arrivalPos="172.80" arrivalSpeed="13.14" duration="115.00" routeLength="462.73" waitingTime="67.00" waitingCount="2" stopTime="0.00" timeLoss="81.03" rerouteNo="1" devices="tripinfo_f897.0 routing_f897.0" vType="car" speedFactor="1.10" vaporized=""/>
    <tripinfo id="f199.0" depart="4.00" departLane="F3E3_2" departPos="127.42" departSpeed="13.90" departDelay="0.00" arrival="228.00" arrivalLane="B1B0_2" arrivalPos="186.40" arrivalSpeed="13.60" duration="224.00" routeLength="1228.17" waitingTime="102.00" waitingCount="4" stopTime="0.00" timeLoss="132.40" rerouteNo="1" devices="tripinfo_f199.0 routing_f199.0" vType="car" speedFactor="1.05" vaporized=""/>
    <tripinfo id="f1.0" depart="10.00" departLane="E0E1_1" departPos="56.25" departSpeed="13.90" departDelay="0.00" arrival="228.00" arrivalLane="D1D0_2" arrivalPos="186.40" arrivalSpeed="13.72" duration="218.00" routeLength="538.37" waitingTime="164.00" waitingCount="2" stopTime="0.00" timeLoss="178.08" rerouteNo="1" devices="tripinfo_f1.0 routing_f1.0" vType="car" speedFactor="1.03" vaporized=""/>
    <tripinfo id="f61.0" depart="56.00" departLane="A1B1_0" departPos="89.29" departSpeed="13.45" departDelay="0.00" arrival="228.00" arrivalLane="E1E0_0" arrivalPos="186.40" arrivalSpeed="13.42" duration="172.00" routeLength="892.54" waitingTime="91.00" waitingCount="1" stopTime="0.00" timeLoss="104.06" rerouteNo="1" devices="tripinfo_f61.0 routing_f61.0" vType="car" speedFactor="0.97" vaporized=""/>
    <tripinfo id="f3.0" depart="37.00" departLane="E0E1_0" departPos="165.38" departSpeed="11.51" departDelay="0.00" arrival="230.00" arrivalLane="B1B0_2" arrivalPos="186.40" arrivalSpeed="13.70" duration="193.00" routeLength="829.24" waitingTime="114.00" waitingCount="2" stopTime="0.00" timeLoss="132.12" rerouteNo="1" devices="tripinfo_f3.0 routing_f3.0" vType="car" speedFactor="1.02" vaporized=""/>