<?xml version="1.0" encoding="UTF-8"?>

<!-- generated on 2026-01-08T18:15:54.636641+01:00 by Eclipse SUMO GUI 1.25.0
<sumoConfiguration xmlns:xsi="http://www.w3.org/2001/XMLSchema-instance" xsi:noNamespaceSchemaLocation="http://sumo.dlr.de/xsd/sumoConfiguration.xsd">

    <input>
        <net-file value="ff.net.xml"/>
        <route-files value="ff_heterogeneous.rou.xml"/>
        <additional-files value="corridor.add.xml"/>
    </input>

    <output>
        <summary-output value="results_summary.xml"/>
        <tripinfo-output value="results_tripinfo.xml"/>
    </output>

    <time>
        <begin value="0"/>
        <end value="3600"/>
    </time>

    <traci_server>
        <remote-port value="53322"/>
    </traci_server>

    <gui_only>
        <quit-on-end value="true"/>
        <start value="true"/>
    </gui_only>

</sumoConfiguration>
-->

<tripinfos xmlns:xsi="http://www.w3.org/2001/XMLSchema-instance" xsi:noNamespaceSchemaLocation="http://sumo.dlr.de/xsd/tripinfo_file.xsd">
    <tripinfo id="f1440.0" depart="21.00" departLane="D1E1_0" departPos="99.13" departSpeed="13.90" departDelay="0.00" arrival="43.00" arrivalLane="E1F1_0" arrivalPos="186.40" arrivalSpeed="12.94" duration="22.00" routeLength="287.27" waitingTime="0.00" waitingCount="0" stopTime="0.00" timeLoss="0.58" rerouteNo="0" devices="tripinfo_f1440.0 routing_f1440.0" vType="car" speedFactor="1.03" vaporized=""/>
    <tripinfo id="f1395.0" depart="30.00" departLane="D1C1_2" departPos="67.51" departSpeed="11.81" departDelay="0.00" arrival="60.00" arrivalLane="C1C0_2" arrivalPos="186.40" arrivalSpeed="11.62" duration="30.00" routeLength="316.20" waitingTime="0.00" waitingCount="0" stopTime="0.00" timeLoss="1.90" rerouteNo="0" devices="tripinfo_f1395.0 routing_f1395.0" vType="car" speedFactor="0.85" vaporized=""/>
    <tripinfo id="f1578.0" depart="46.00" departLane="D4C4_1" departPos="162.55" departSpeed="7.37" departDelay="0.00" arrival="65.00" arrivalLane="C4C5_0" arrivalPos="186.40" arrivalSpeed="13.05" duration="19.00" routeLength="205.68" waitingTime="0.00" waitingCount="0" stopTime="0.00" timeLoss="2.78" rerouteNo="0" devices="tripinfo_f1578.0 routing_f1578.0" vType="car" speedFactor="0.98" vaporized=""/>
    <tripinfo id="f113.0" depart="41.00" departLane="A4B4_0" departPos="157.26" departSpeed="12.60" departDelay="0.00" arrival="72.00" arrivalLane="B4B5_2" arrivalPos="186.40" arrivalSpeed="12.02" duration="31.00" routeLength="240.05" waitingTime="3.00" waitingCount="1" stopTime="0.00" timeLoss="10.65" rerouteNo="0" devices="tripinfo_f113.0 routing_f113.0" vType="car" speedFactor="0.91" vaporized=""/>
    <tripinfo id="f226.0" depart="22.00" departLane="F1E1_1" departPos="55.23" departSpeed="13.29" departDelay="0.00" arrival="73.00" arrivalLane="E1E0_2" arrivalPos="186.40" arrivalSpeed="12.75" duration="51.00" routeLength="342.08" waitingTime="18.00" waitingCount="1" stopTime="0.00" timeLoss="23.99" rerouteNo="0" devices="tripinfo_f226.0 routing_f226.0" vType="car" speedFactor="0.96" vaporized=""/>
    <tripinfo id="f1070.0" depart="0.00" departLane="B2B3_2" departPos="128.43" departSpeed="7.92" departDelay="0.00" arrival="87.00" arrivalLane="E3F3_0" arrivalPos="186.40" arrivalSpeed="12.57" duration="87.00" routeLength="839.80" waitingTime="9.00" waitingCount="1" stopTime="0.00" timeLoss="21.21" rerouteNo="1" devices="tripinfo_f1070.0 routing_f1070.0" vType="car" speedFactor="0.94" vaporized=""/>
    <tripinfo id="f1620.0" depart="12.00" departLane="E1D1_1" departPos="15.38" departSpeed="13.08" departDelay="0.00" arrival="89.00" arrivalLane="B1B0_2" arrivalPos="186.40" arrivalSpeed="12.97" duration="77.00" routeLength="768.33" waitingTime="9.00" waitingCount="1" stopTime="0.00" timeLoss="17.34" rerouteNo="1" devices="tripinfo_f1620.0 routing_f1620.0" vType="car" speedFactor="0.94" vaporized=""/>
    <tripinfo id="f63.0" depart="44.00" departLane="A1B1_2" departPos="21.37" departSpeed="13.51" departDelay="0.00" arrival="91.00" arrivalLane="C1C0_0" arrivalPos="186.40" arrivalSpeed="13.40" duration="47.00" routeLength="560.46" waitingTime="0.00" waitingCount="0" stopTime="0.00" timeLoss="3.58" rerouteNo="1" devices="tripinfo_f63.0 routing_f63.0" vType="car" speedFactor="0.97" vaporized=""/>
    <tripinfo id="f2509.0" depart="19.00" departLane="C2C3_2" departPos="72.09" departSpeed="13.82" departDelay="0.00" arrival="106.00" arrivalLane="D2D1_1" arrivalPos="172.80" arrivalSpeed="13.68" duration="87.00" routeLength="664.37" waitingTime="18.00" waitingCount="2" stopTime="0.00" timeLoss="36.31" rerouteNo="1" devices="tripinfo_f2509.0 routing_f2509.0" vType="car" speedFactor="0.99" vaporized=""/>
    <tripinfo id="f2500.0" depart="86.00" departLane="C2C3_0" departPos="73.30" departSpeed="13.38" departDelay="0.00" arrival="110.00" arrivalLane="C3C4_1" arrivalPos="172.80" arrivalSpeed="12.43" duration="24.00" routeLength="299.50" waitingTime="0.00" waitingCount="0" stopTime="0.00" timeLoss="0.74" rerouteNo="0" devices="tripinfo_f2500.0 routing_f2500.0" vType="car" speedFactor="0.96" vaporized=""/>
    <tripinfo id="f211.0" depart="1.00" departLane="F2E2_2" departPos="101.64" departSpeed="13.90" departDelay="0.00" arrival="111.00" arrivalLane="E1E0_0" arrivalPos="186.40" arrivalSpeed="13.05" duration="110.00" routeLength="495.67" waitingTime="59.00" waitingCount="2" stopTime="0.00" timeLoss="73.45" rerouteNo="1" devices="tripinfo_f211.0 routing_f211.0" vType="car" speedFactor="1.01" vaporized=""/>
    <tripinfo id="f1740.0" depart="77.00" departLane="E3E4_0" departPos="91.68" departSpeed="13.90" departDelay="1.00" arrival="112.00" arrivalLane="E4E5_0" arrivalPos="186.40" arrivalSpeed="12.91" duration="35.00" routeLength="294.72" waitingTime="6.00" waitingCount="1" stopTime="0.00" timeLoss="13.10" rerouteNo="0" devices="tripinfo_f1740.0 routing_f1740.0" vType="car" speedFactor="1.01" vaporized=""/>
    <tripinfo id="f96.0" depart="69.00" departLane="A3B3_2" departPos="46.49" departSpeed="13.90" departDelay="0.00" arrival="113.00" arrivalLane="B2A2_0" arrivalPos="186.40" arrivalSpeed="13.37" duration="44.00" routeLength="517.17" waitingTime="0.00" waitingCount="0" stopTime="0.00" timeLoss="5.67" rerouteNo="1" devices="tripinfo_f96.0 routing_f96.0" vType="car" speedFactor="1.06" vaporized=""/>
    <tripinfo id="f83.0" depart="54.00" departLane="A2B2_2" departPos="5.87" departSpeed="13.90" departDelay="0.00" arrival="121.00" arrivalLane="B4B5_1" arrivalPos="186.40" arrivalSpeed="13.79" duration="67.00" routeLength="791.44" waitingTime="1.00" waitingCount="1" stopTime="0.00" timeLoss="8.70" rerouteNo="1" devices="tripinfo_f83.0 routing_f83.0" vType="car" speedFactor="1.01" vaporized=""/>
    <tripinfo id="f3069.0" depart="10.00" departLane="D2C2_0" departPos="21.67" departSpeed="13.77" departDelay="0.00" arrival="124.00" arrivalLane="C4D4_1" arrivalPos="172.80" arrivalSpeed="11.72" duration="114.00" routeLength="714.79" waitingTime="46.00" waitingCount="1" stopTime="0.00" timeLoss="60.22" rerouteNo="1" devices="tripinfo_f3069.0 routing_f3069.0" vType="car" speedFactor="0.99" vaporized=""/>
    <tripinfo id="f1659.0" depart="51.00" departLane="E2D2_0" departPos="39.92" departSpeed="12.39" departDelay="0.00" arrival="125.00" arrivalLane="D4D5_0" arrivalPos="186.40" arrivalSpeed="11.65" duration="74.00" routeLength="728.31" waitingTime="2.00" waitingCount="1" stopTime="0.00" timeLoss="13.43" rerouteNo="1" devices="tripinfo_f1659.0 routing_f1659.0" vType="car" speedFactor="0.89" vaporized=""/>
    <tripinfo id="f1289.0" depart="92.00" departLane="C3B3_0" departPos="134.83" departSpeed="12.70" departDelay="0.00" arrival="131.00" arrivalLane="B4B5_0" arrivalPos="186.40" arrivalSpeed="11.77" duration="39.00" routeLength="433.40" waitingTime="0.00" waitingCount="0" stopTime="0.00" timeLoss="3.94" rerouteNo="1" devices="tripinfo_f1289.0 routing_f1289.0" vType="car" speedFactor="0.91" vaporized=""/>
    <tripinfo id="f32.0" depart="42.00" departLane="C0C1_1" departPos="28.58" departSpeed="12.70" departDelay="0.00" arrival="135.00" arrivalLane="D1D0_0" arrivalPos="186.40" arrivalSpeed="11.91" duration="93.00" routeLength="535.08" waitingTime="29.00" waitingCount="2" stopTime="0.00" timeLoss="49.22" rerouteNo="1" devices="tripinfo_f32.0 routing_f32.0" vType="car" speedFactor="0.91" vaporized=""/>
    <tripinfo id="f67.0" depart="58.00" departLane="A1B1_0" departPos="66.55" departSpeed="13.33" departDelay="0.00" arrival="139.00" arrivalLane="B4A4_2" arrivalPos="186.40" arrivalSpeed="13.07" duration="81.00" routeLength="928.07" waitingTime="0.00" waitingCount="0" stopTime="0.00" timeLoss="9.38" rerouteNo="1" devices="tripinfo_f67.0 routing_f67.0" vType="car" speedFactor="0.96" vaporized=""/>
    <tripinfo id="f1174.0" depart="40.00" departLane="C1B1_1" departPos="67.99" departSpeed="13.02" departDelay="0.00" arrival="140.00" arrivalLane="B2A2_2" arrivalPos="186.40" arrivalSpeed="12.41" duration="100.00" routeLength="497.55" waitingTime="51.00" waitingCount="1" stopTime="0.00" timeLoss="60.00" rerouteNo="1" devices="tripinfo_f1174.0 routing_f1174.0" vType="car" speedFactor="0.94" vaporized=""/>
    <tripinfo id="f110.0" depart="10.00" departLane="A4B4_2" departPos="29.66" departSpeed="13.90" departDelay="0.00" arrival="141.00" arrivalLane="B1A1_0" arrivalPos="186.40" arrivalSpeed="13.06" duration="131.00" routeLength="934.00" waitingTime="39.00" waitingCount="2" stopTime="0.00" timeLoss="62.18" rerouteNo="1" devices="tripinfo_f110.0 routing_f110.0" vType="car" speedFactor="1.05" vaporized=""/>
    <tripinfo id="f181.0" depart="48.00" departLane="F4E4_1" departPos="22.26" departSpeed="13.90" departDelay="0.00" arrival="141.00" arrivalLane="E1E0_1" arrivalPos="186.40" arrivalSpeed="13.87" duration="93.00" routeLength="975.05" waitingTime="12.00" waitingCount="1" stopTime="0.00" timeLoss="21.57" rerouteNo="1" devices="tripinfo_f181.0 routing_f181.0" vType="car" speedFactor="1.02" vaporized=""/>
    <tripinfo id="f1537.0" depart="20.00" departLane="D3D4_1" departPos="85.14" departSpeed="13.90" departDelay="0.00" arrival="142.00" arrivalLane="E1E0_0" arrivalPos="186.40" arrivalSpeed="13.07" duration="122.00" routeLength="1064.92" waitingTime="29.00" waitingCount="1" stopTime="0.00" timeLoss="43.94" rerouteNo="1" devices="tripinfo_f1537.0 routing_f1537.0" vType="car" speedFactor="1.10" vaporized=""/>
    <tripinfo id="f11.0" depart="62.00" departLane="E0E1_2" departPos="94.37" departSpeed="13.90" departDelay="0.00" arrival="156.00" arrivalLane="E4E5_0" arrivalPos="186.40" arrivalSpeed="13.09" duration="94.00" routeLength="905.63" waitingTime="17.00" waitingCount="1" stopTime="0.00" timeLoss="28.51" rerouteNo="1" devices="tripinfo_f11.0 routing_f11.0" vType="car" speedFactor="1.10" vaporized=""/>
    <tripinfo id="f177.0" depart="154.00" departLane="E5E4_2" departPos="144.39" departSpeed="13.90" departDelay="0.00" arrival="175.00" arrivalLane="E4F4_2" arrivalPos="186.40" arrivalSpeed="13.42" duration="21.00" routeLength="252.92" waitingTime="0.00" waitingCount="0" stopTime="0.00" timeLoss="1.49" rerouteNo="0" devices="tripinfo_f177.0 routing_f177.0" vType="car" speedFactor="1.04" vaporized=""/>
    <tripinfo id="f225.0" depart="69.00" departLane="F2E2_0" departPos="131.34" departSpeed="1.16" departDelay="0.00" arrival="177.00" arrivalLane="E1F1_2" arrivalPos="186.40" arrivalSpeed="13.22" duration="108.00" routeLength="463.28" waitingTime="56.00" waitingCount="1" stopTime="0.00" timeLoss="73.73" rerouteNo="1" devices="tripinfo_f225.0 routing_f225.0" vType="car" speedFactor="1.03" vaporized=""/>
    <tripinfo id="f812.0" depart="1.00" departLane="E5E4_1" departPos="86.89" departSpeed="13.90" departDelay="0.00" arrival="178.00" arrivalLane="E3D3_0" arrivalPos="172.80" arrivalSpeed="4.93" duration="177.00" routeLength="481.34" waitingTime="127.00" waitingCount="2" stopTime="0.00" timeLoss="141.67" rerouteNo="1" devices="tripinfo_f812.0 routing_f812.0" vType="car" speedFactor="1.08" vaporized=""/>
    <tripinfo id="f3305.0" depart="11.00" departLane="D3D2_2" departPos="38.56" departSpeed="12.87" departDelay="0.00" arrival="178.00" arrivalLane="D1C1_0" arrivalPos="172.80" arrivalSpeed="2.78" duration="167.00" routeLength="516.07" waitingTime="112.00" waitingCount="2" stopTime="0.00" timeLoss="125.77" rerouteNo="1" devices="tripinfo_f3305.0 routing_f3305.0" vType="car" speedFactor="0.93" vaporized=""/>
    <tripinfo id="f160.0" depart="129.00" departLane="D5D4_0" departPos="104.97" departSpeed="11.61" departDelay="0.00" arrival="180.00" arrivalLane="C4C5_0" arrivalPos="186.40" arrivalSpeed="10.61" duration="51.00" routeLength="458.69" waitingTime="0.00" waitingCount="0" stopTime="0.00" timeLoss="9.05" rerouteNo="1" devices="tripinfo_f160.0 routing_f160.0" vType="car" speedFactor="0.84" vaporized=""/>
    <tripinfo id="f180.0" depart="17.00" departLane="E5E4_1" departPos="33.36" departSpeed="12.12" departDelay="0.00" arrival="181.00" arrivalLane="E1F1_2" arrivalPos="186.40" arrivalSpeed="11.33" duration="164.00" routeLength="963.95" waitingTime="68.00" waitingCount="2" stopTime="0.00" timeLoss="83.81" rerouteNo="1" devices="tripinfo_f180.0 routing_f180.0" vType="car" speedFactor="0.87" vaporized=""/>
    <tripinfo id="f160.1" depart="143.00" departLane="D5D4_1" departPos="121.38" departSpeed="13.90" departDelay="0.00" arrival="183.00" arrivalLane="C4C5_0" arrivalPos="186.40" arrivalSpeed="13.00" duration="40.00" routeLength="442.28" waitingTime="0.00" waitingCount="0" stopTime="0.00" timeLoss="6.49" rerouteNo="1" devices="tripinfo_f160.1 routing_f160.1" vType="car" speedFactor="1.01" vaporized=""/>
    <tripinfo id="f144.0" depart="147.00" departLane="C5C4_1" departPos="98.47" departSpeed="13.90" departDelay="0.00" arrival="187.00" arrivalLane="B4B5_0" arrivalPos="186.40" arrivalSpeed="13.34" duration="40.00" routeLength="465.19" waitingTime="0.00" waitingCount="0" stopTime="0.00" timeLoss="5.55" rerouteNo="1" devices="tripinfo_f144.0 routing_f144.0" vType="car" speedFactor="1.11" vaporized=""/>
    <tripinfo id="f142.0" depart="127.00" departLane="C5C4_2" departPos="70.84" departSpeed="13.83" departDelay="0.00" arrival="192.00" arrivalLane="B3A3_0" arrivalPos="186.40" arrivalSpeed="13.31" duration="65.00" routeLength="710.99" waitingTime="0.00" waitingCount="0" stopTime="0.00" timeLoss="12.18" rerouteNo="1" devices="tripinfo_f142.0 routing_f142.0" vType="car" speedFactor="1.00" vaporized=""/>
    <tripinfo id="f1510.0" depart="47.00" departLane="D3C3_0" departPos="69.69" departSpeed="13.90" departDelay="0.00" arrival="193.00" arrivalLane="B2A2_0" arrivalPos="186.40" arrivalSpeed="13.70" duration="146.00" routeLength="695.85" waitingTime="77.00" waitingCount="2" stopTime="0.00" timeLoss="94.93" rerouteNo="1" devices="tripinfo_f1510.0 routing_f1510.0" vType="car" speedFactor="1.09" vaporized=""/>
    <tripinfo id="f340.0" depart="50.00" departLane="C0C1_1" departPos="20.44" departSpeed="13.90" departDelay="0.00" arrival="193.00" arrivalLane="B2B3_0" arrivalPos="172.80" arrivalSpeed="13.24" duration="143.00" routeLength="745.10" waitingTime="61.00" waitingCount="3" stopTime="0.00" timeLoss="87.85" rerouteNo="1" devices="tripinfo_f340.0 routing_f340.0" vType="car" speedFactor="1.04" vaporized=""/>
    <tripinfo id="f1656.0" depart="51.00" departLane="E2D2_2" departPos="38.35" departSpeed="13.90" departDelay="0.00" arrival="193.00" arrivalLane="B4A4_0" arrivalPos="186.40" arrivalSpeed="13.77" duration="142.00" routeLength="1106.33" waitingTime="39.00" waitingCount="1" stopTime="0.00" timeLoss="59.82" rerouteNo="1" devices="tripinfo_f1656.0 routing_f1656.0" vType="car" speedFactor="1.02" vaporized=""/>
    <tripinfo id="f911.0" depart="88.00" departLane="F3E3_2" departPos="114.22" departSpeed="13.90" departDelay="0.00" arrival="194.00" arrivalLane="E4D4_1" arrivalPos="172.80" arrivalSpeed="10.02" duration="106.00" routeLength="451.32" waitingTime="45.00" waitingCount="2" stopTime="0.00" timeLoss="72.13" rerouteNo="1" devices="tripinfo_f911.0 routing_f911.0" vType="car" speedFactor="1.08" vaporized=""/>
    <tripinfo id="f1010.0" depart="47.00" departLane="B1B2_1" departPos="98.25" departSpeed="13.90" departDelay="0.00" arrival="195.00" arrivalLane="D1D0_0" arrivalPos="186.40" arrivalSpeed="13.83" duration="148.00" routeLength="830.95" waitingTime="64.00" waitingCount="2" stopTime="0.00" timeLoss="85.06" rerouteNo="1" devices="tripinfo_f1010.0 routing_f1010.0" vType="car" speedFactor="1.01" vaporized=""/>
    <tripinfo id="f2748.0" depart="160.00" departLane="C3D3_2" departPos="61.93" departSpeed="13.90" departDelay="0.00" arrival="196.00" arrivalLane="D3D2_1" arrivalPos="172.80" arrivalSpeed="10.77" duration="36.00" routeLength="292.70" waitingTime="5.00" waitingCount="1" stopTime="0.00" timeLoss="13.99" rerouteNo="0" devices="tripinfo_f2748.0 routing_f2748.0" vType="car" speedFactor="1.21" vaporized=""/>
    <tripinfo id="f804.0" depart="102.00" departLane="E5E4_0" departPos="25.68" departSpeed="13.90" departDelay="0.00" arrival="198.00" arrivalLane="D4C4_1" arrivalPos="172.80" arrivalSpeed="13.20" duration="96.00" routeLength="542.55" waitingTime="41.00" waitingCount="1" stopTime="0.00" timeLoss="55.72" rerouteNo="1" devices="tripinfo_f804.0 routing_f804.0" vType="car" speedFactor="1.06" vaporized=""/>
    <tripinfo id="f221.0" depart="19.00" departLane="F2E2_2" departPos="114.66" departSpeed="13.90" departDelay="0.00" arrival="200.00" arrivalLane="D4D5_0" arrivalPos="186.40" arrivalSpeed="13.06" duration="181.00" routeLength="846.31" waitingTime="89.00" waitingCount="3" stopTime="0.00" timeLoss="117.81" rerouteNo="1" devices="tripinfo_f221.0 routing_f221.0" vType="car" speedFactor="1.01" vaporized=""/>
    <tripinfo id="f586.0" depart="72.00" departLane="A4B4_2" departPos="126.57" departSpeed="13.90" departDelay="0.00" arrival="201.00" arrivalLane="B4C4_1" arrivalPos="172.80" arrivalSpeed="4.77" duration="129.00" routeLength="259.83" waitingTime="96.00" waitingCount="2" stopTime="0.00" timeLoss="110.21" rerouteNo="0" devices="tripinfo_f586.0 routing_f586.0" vType="car" speedFactor="1.01" vaporized=""/>
    <tripinfo id="f1549.0" depart="76.00" departLane="D3D4_0" departPos="73.07" departSpeed="13.90" departDelay="0.00" arrival="204.00" arrivalLane="E4F4_0" arrivalPos="186.40" arrivalSpeed="13.09" duration="128.00" routeLength="495.16" waitingTime="82.00" waitingCount="1" stopTime="0.00" timeLoss="91.20" rerouteNo="1" devices="tripinfo_f1549.0 routing_f1549.0" vType="car" speedFactor="1.23" vaporized=""/>
    <tripinfo id="f585.0" depart="143.00" departLane="A4B4_1" departPos="58.07" departSpeed="13.47" departDelay="0.00" arrival="204.00" arrivalLane="B4B3_2" arrivalPos="172.80" arrivalSpeed="11.30" duration="61.00" routeLength="310.16" waitingTime="24.00" waitingCount="1" stopTime="0.00" timeLoss="36.73" rerouteNo="0" devices="tripinfo_f585.0 routing_f585.0" vType="car" speedFactor="0.97" vaporized=""/>
    <tripinfo id="f1440.1" depart="107.00" departLane="D1E1_0" departPos="157.10" departSpeed="9.73" departDelay="0.00" arrival="205.00" arrivalLane="E1F1_0" arrivalPos="186.40" arrivalSpeed="13.01" duration="98.00" routeLength="229.30" waitingTime="72.00" waitingCount="1" stopTime="0.00" timeLoss="80.08" rerouteNo="0" devices="tripinfo_f1440.1 routing_f1440.1" vType="car" speedFactor="0.97" vaporized=""/>
    <tripinfo id="f230.0" depart="14.00" departLane="F1E1_2" departPos="57.37" departSpeed="13.90" departDelay="0.00" arrival="208.00" arrivalLane="B1A1_0" arrivalPos="186.40" arrivalSpeed="13.37" duration="194.00" routeLength="942.63" waitingTime="117.00" waitingCount="1" stopTime="0.00" timeLoss="126.19" rerouteNo="1" devices="tripinfo_f230.0 routing_f230.0" vType="car" speedFactor="1.02" vaporized=""/>
    <tripinfo id="f515.0" depart="48.00" departLane="A2B2_1" departPos="1.37" departSpeed="13.43" departDelay="0.00" arrival="208.00" arrivalLane="D3E3_0" arrivalPos="172.80" arrivalSpeed="12.44" duration="160.00" routeLength="964.17" waitingTime="75.00" waitingCount="1" stopTime="0.00" timeLoss="85.86" rerouteNo="1" devices="tripinfo_f515.0 routing_f515.0" vType="car" speedFactor="0.97" vaporized=""/>
    <tripinfo id="f45.0" depart="125.00" departLane="C0C1_1" departPos="173.94" departSpeed="8.48" departDelay="0.00" arrival="209.00" arrivalLane="E1F1_0" arrivalPos="186.40" arrivalSpeed="12.47" duration="84.00" routeLength="607.89" waitingTime="28.00" waitingCount="1" stopTime="0.00" timeLoss="38.37" rerouteNo="1" devices="tripinfo_f45.0 routing_f45.0" vType="car" speedFactor="0.97" vaporized=""/>
    <tripinfo id="f230.1" depart="21.00" departLane="F1E1_2" departPos="132.48" departSpeed="12.51" departDelay="0.00" arrival="211.00" arrivalLane="B1A1_0" arrivalPos="186.40" arrivalSpeed="11.76" duration="190.00" routeLength="867.52" waitingTime="112.00" waitingCount="1" stopTime="0.00" timeLoss="120.26" rerouteNo="1" devices="tripinfo_f230.1 routing_f230.1" vType="car" speedFactor="0.90" vaporized=""/>
    <tripinfo id="f103.0" depart="12.00" departLane="A3B3_1" departPos="44.99" departSpeed="12.20" departDelay="0.00" arrival="213.00" arrivalLane="E3F3_0" arrivalPos="186.40" arrivalSpeed="11.58" duration="201.00" routeLength="955.01" waitingTime="107.00" waitingCount="2" stopTime="0.00" timeLoss="121.87" rerouteNo="1" devices="tripinfo_f103.0 routing_f103.0" vType="car" speedFactor="0.88" vaporized=""/>
    <tripinfo id="f1009.0" depart="46.00" departLane="B1B2_1" departPos="32.92" departSpeed="13.90" departDelay="0.00" arrival="213.00" arrivalLane="E1E0_0" arrivalPos="186.40" arrivalSpeed="13.59" duration="167.00" routeLength="1096.28" waitingTime="58.00" waitingCount="2" stopTime="0.00" timeLoss="85.40" rerouteNo="1" devices="tripinfo_f1009.0 routing_f1009.0" vType="car" speedFactor="1.03" vaporized=""/>
    <tripinfo id="f1279.0" depart="58.00" departLane="C2D2_2" departPos="4.60" departSpeed="12.03" departDelay="0.00" arrival="213.00" arrivalLane="E2F2_0" arrivalPos="186.40" arrivalSpeed="11.10" duration="155.00" routeLength="581.80" waitingTime="99.00" waitingCount="1" stopTime="0.00" timeLoss="106.20" rerouteNo="1" devices="tripinfo_f1279.0 routing_f1279.0" vType="car" speedFactor="0.87" vaporized=""/>
    <tripinfo id="f59.0" depart="4.00" departLane="B0B1_1" departPos="163.21" departSpeed="11.54" departDelay="0.00" arrival="214.00" arrivalLane="E2F2_0" arrivalPos="186.40" arrivalSpeed="10.97" duration="210.00" routeLength="997.76" waitingTime="104.00" waitingCount="2" stopTime="0.00" timeLoss="120.54" rerouteNo="1" devices="tripinfo_f59.0 routing_f59.0" vType="car" speedFactor="0.83" vaporized=""/>
    <tripinfo id="f3049.0" depart="110.00" departLane="D2C2_2" departPos="27.57" departSpeed="12.89" departDelay="0.00" arrival="214.00" arrivalLane="B2B3_1" arrivalPos="172.80" arrivalSpeed="10.90" duration="104.00" routeLength="527.06" waitingTime="49.00" waitingCount="1" stopTime="0.00" timeLoss="61.92" rerouteNo="1" devices="tripinfo_f3049.0 routing_f3049.0" vType="car" speedFactor="0.93" vaporized=""/>
    <tripinfo id="f4047.0" depart="189.00" departLane="E0E1_2" departPos="82.71" departSpeed="13.90" departDelay="0.00" arrival="214.00" arrivalLane="E1F1_0" arrivalPos="186.40" arrivalSpeed="13.08" duration="25.00" routeLength="299.12" waitingTime="0.00" waitingCount="0" stopTime="0.00" timeLoss="2.76" rerouteNo="0" devices="tripinfo_f4047.0 routing_f4047.0" vType="car" speedFactor="1.11" vaporized=""/>
    <tripinfo id="f44.1" depart="87.00" departLane="C0C1_0" departPos="96.74" departSpeed="13.90" departDelay="0.00" arrival="215.00" arrivalLane="E2F2_1" arrivalPos="186.40" arrivalSpeed="13.28" duration="128.00" routeLength="885.09" waitingTime="36.00" waitingCount="1" stopTime="0.00" timeLoss="63.41" rerouteNo="1" devices="tripinfo_f44.1 routing_f44.1" vType="car" speedFactor="1.00" vaporized=""/>
    <tripinfo id="f1670.0" depart="89.00" departLane="E2E1_1" departPos="161.29" departSpeed="2.56" departDelay="0.00" arrival="217.00" arrivalLane="B2A2_1" arrivalPos="186.40" arrivalSpeed="13.11" duration="128.00" routeLength="986.08" waitingTime="19.00" waitingCount="2" stopTime="0.00" timeLoss="54.36" rerouteNo="1" devices="tripinfo_f1670.0 routing_f1670.0" vType="car" speedFactor="0.99" vaporized=""/>
    <tripinfo id="f2955.0" depart="109.00" departLane="D1D2_0" departPos="114.81" departSpeed="4.99" departDelay="0.00" arrival="217.00" arrivalLane="B2B3_1" arrivalPos="172.80" arrivalSpeed="11.75" duration="108.00" routeLength="637.13" waitingTime="31.00" waitingCount="4" stopTime="0.00" timeLoss="55.12" rerouteNo="1" devices="tripinfo_f2955.0 routing_f2955.0" vType="car" speedFactor="0.90" vaporized=""/>
    <tripinfo id="f252.0" depart="30.00" departLane="E0E1_0" departPos="69.27" departSpeed="12.18" departDelay="0.00" arrival="218.00" arrivalLane="C1C2_2" arrivalPos="172.80" arrivalSpeed="10.21" duration="188.00" routeLength="696.27" waitingTime="111.00" waitingCount="2" stopTime="0.00" timeLoss="128.73" rerouteNo="1" devices="tripinfo_f252.0 routing_f252.0" vType="car" speedFactor="0.88" vaporized=""/>
    <tripinfo id="f1562.0" depart="79.00" departLane="D3E3_0" departPos="104.26" departSpeed="9.38" departDelay="0.00" arrival="218.00" arrivalLane="C4C5_0" arrivalPos="186.40" arrivalSpeed="13.47" duration="139.00" routeLength="858.59" waitingTime="50.00" waitingCount="2" stopTime="0.00" timeLoss="75.99" rerouteNo="1" devices="tripinfo_f1562.0 routing_f1562.0" vType="car" speedFactor="1.11" vaporized=""/>
    <tripinfo id="f1558.0" depart="57.00" departLane="D3E3_0" departPos="127.76" departSpeed="13.90" departDelay="0.00" arrival="223.00" arrivalLane="B2A2_0" arrivalPos="186.40" arrivalSpeed="13.34" duration="166.00" routeLength="1022.30" waitingTime="77.00" waitingCount="1" stopTime="0.00" timeLoss="91.09" rerouteNo="1" devices="tripinfo_f1558.0 routing_f1558.0" vType="car" speedFactor="1.06" vaporized=""/>
    <tripinfo id="f46.0" depart="55.00" departLane="B0B1_0" departPos="101.52" departSpeed="13.90" departDelay="0.00" arrival="224.00" arrivalLane="E1E0_0" arrivalPos="186.40" arrivalSpeed="13.52" duration="169.00" routeLength="862.14" waitingTime="83.00" waitingCount="3" stopTime="0.00" timeLoss="105.30" rerouteNo="1" devices="tripinfo_f46.0 routing_f46.0" vType="car" speedFactor="1.10" vaporized=""/>
    <tripinfo id="f62.0" depart="60.00" departLane="A1B1_2" departPos="73.94" departSpeed="12.58" departDelay="0.00" arrival="224.00" arrivalLane="D1D0_0" arrivalPos="186.40" arrivalSpeed="13.32" duration="164.00" routeLength="707.88" waitingTime="102.00" waitingCount="1" stopTime="0.00" timeLoss="112.32" rerouteNo="1" devices="tripinfo_f62.0 routing_f62.0" vType="car" speedFactor="1.10" vaporized=""/>
    <tripinfo id="f1762.0" depart="73.00" departLane="E4E3_1" departPos="47.39" departSpeed="13.90" departDelay="0.00" arrival="226.00" arrivalLane="D1D0_2" arrivalPos="186.40" arrivalSpeed="13.90" duration="153.00" routeLength="918.15" waitingTime="67.00" waitingCount="2" stopTime="0.00" timeLoss="85.88" rerouteNo="1" devices="tripinfo_f1762.0 routing_f1762.0" vType="car" speedFactor="1.07" vaporized=""/>
    <tripinfo id="f1667.0" depart="103.00" departLane="E2E1_0" departPos="151.42" departSpeed="11.63" departDelay="0.00" arrival="226.00" arrivalLane="C1C0_2" arrivalPos="186.40" arrivalSpeed="13.74" duration="123.00" routeLength="614.12" waitingTime="61.00" waitingCount="2" stopTime="0.00" timeLoss="77.24" rerouteNo="1" devices="tripinfo_f1667.0 routing_f1667.0" vType="car" speedFactor="1.03" vaporized=""/>
    <tripinfo id="f174.1" depart="51.00" departLane="E5E4_1" departPos="42.94" departSpeed="13.90" departDelay="1.00" arrival="227.00" arrivalLane="B4B5_0" arrivalPos="186.40" arrivalSpeed="13.89" duration="176.00" routeLength="920.72" waitingTime="87.00" waitingCount="2" stopTime="0.00" timeLoss="108.35" rerouteNo="1" devices="tripinfo_f174.1 routing_f174.1" vType="car" speedFactor="1.00" vaporized=""/>
    <tripinfo id="f1236.0" depart="123.00" departLane="C2C1_1" departPos="72.82" departSpeed="13.90" departDelay="0.00" arrival="227.00" arrivalLane="B1B0_2" arrivalPos="186.40" arrivalSpeed="13.30" duration="104.00" routeLength="492.72" waitingTime="56.00" waitingCount="1" stopTime="0.00" timeLoss="66.71" rerouteNo="1" devices="tripinfo_f1236.0 routing_f1236.0" vType="car" speedFactor="1.04" vaporized=""/>
    <tripinfo id="f1920.0" depart="45.00" departLane="B2B3_1" departPos="33.75" departSpeed="13.90" departDelay="0.00" arrival="228.00" arrivalLane="B2B1_2" arrivalPos="172.80" arrivalSpeed="13.46" duration="183.00" routeLength="881.85" waitingTime="99.00" waitingCount="1" stopTime="0.00" timeLoss="116.56" rerouteNo="1" devices="tripinfo_f1920.0 routing_f1920.0" vType="car" speedFactor="1.06" vaporized=""/>
    <tripinfo id="f61.0" depart="56.00" departLane="A1B1_0" departPos="89.29" departSpeed="13.45" departDelay="0.00" arrival="228.00" arrivalLane="E1E0_0" arrivalPos="186.40" arrivalSpeed="12.84" duration="172.00" routeLength="892.54" waitingTime="92.00" waitingCount="1" stopTime="0.00" timeLoss="103.87" rerouteNo="1" devices="tripinfo_f61.0 routing_f61.0" vType="car" speedFactor="0.97" vaporized=""/>
    <tripinfo id="f182.0" depart="73.00" departLane="F4E4_2" departPos="152.07" departSpeed="13.90" departDelay="0.00" arrival="228.00" arrivalLane="D1D0_2" arrivalPos="186.40" arrivalSpeed="13.44" duration="155.00" routeLength="1024.38" waitingTime="59.00" waitingCount="1" stopTime="0.00" timeLoss="79.56" rerouteNo="1" devices="tripinfo_f182.0 routing_f182.0" vType="car" speedFactor="1.03" vaporized=""/>
    <tripinfo id="f1620.1" depart="145.00" departLane="E1D1_0" departPos="126.03" departSpeed="13.51" departDelay="0.00" arrival="228.00" arrivalLane="B1B0_2" arrivalPos="186.40" arrivalSpeed="13.25" duration="83.00" routeLength="657.68" waitingTime="24.00" waitingCount="1" stopTime="0.00" timeLoss="33.69" rerouteNo="1" devices="tripinfo_f1620.1 routing_f1620.1" vType="car" speedFactor="0.97" vaporized=""/>