<?xml version="1.0" encoding="UTF-8"?>

<!-- generated on 2026-01-12T10:59:54.698460+01:00 by Eclipse SUMO GUI 1.25.0
<sumoConfiguration xmlns:xsi="http://www.w3.org/2001/XMLSchema-instance" xsi:noNamespaceSchemaLocation="http://sumo.dlr.de/xsd/sumoConfiguration.xsd">

    <input>
        <net-file value="ff.net.xml"/>
        <route-files value="ff_heterogeneous.rou.xml"/>
        <additional-files value="corridor.add.xml"/>
    </input>

    <output>
        <emission-output value="emissions.xml"/>
        <queue-output value="queue.xml"/>
        <summary-output value="summary.xml"/>
        <tripinfo-output value="tripinfo.xml"/>
    </output>

    <time>
        <begin value="0"/>
        <end value="3600"/>
    </time>

    <traci_server>
        <remote-port value="65363"/>
    </traci_server>

    <gui_only>
        <quit-on-end value="true"/>
        <start value="true"/>
    </gui_only>

</sumoConfiguration>
-->

<tripinfos xmlns:xsi="http://www.w3.org/2001/XMLSchema-instance" xsi:noNamespaceSchemaLocation="http://sumo.dlr.de/xsd/tripinfo_file.xsd">
    <tripinfo id="f1440.0" depart="21.00" departLane="D1E1_0" departPos="99.13" departSpeed="13.90" departDelay="0.00" arrival="43.00" arrivalLane="E1F1_0" arrivalPos="186.40" arrivalSpeed="12.94" duration="22.00" routeLength="287.27" waitingTime="0.00" waitingCount="0" stopTime="0.00" timeLoss="0.58" rerouteNo="0" devices="tripinfo_f1440.0 routing_f1440.0 emissions_f1440.0" vType="car" speedFactor="1.03" vaporized="">
        <emissions CO_abs="196.31" CO2_abs="41658.44" HC_abs="1.34" PMx_abs="7.13" NOx_abs="15.27" fuel_abs="13505.28" electricity_abs="0.00"/>
    </tripinfo>
    <tripinfo id="f226.0" depart="22.00" departLane="F1E1_1" departPos="55.23" departSpeed="13.29" departDelay="0.00" arrival="51.00" arrivalLane="E1E0_2" arrivalPos="186.40" arrivalSpeed="12.45" duration="29.00" routeLength="342.08" waitingTime="0.00" waitingCount="0" stopTime="0.00" timeLoss="1.81" rerouteNo="0" devices="tripinfo_f226.0 routing_f226.0 emissions_f226.0" vType="car" speedFactor="0.96" vaporized="">
        <emissions CO_abs="306.85" CO2_abs="56520.36" HC_abs="2.06" PMx_abs="6.96" NOx_abs="20.20" fuel_abs="18323.25" electricity_abs="0.00"/>
    </tripinfo>
    <tripinfo id="f1395.0" depart="30.00" departLane="D1C1_2" departPos="67.51" departSpeed="11.81" departDelay="0.00" arrival="60.00" arrivalLane="C1C0_2" arrivalPos="186.40" arrivalSpeed="11.44" duration="30.00" routeLength="316.20" waitingTime="0.00" waitingCount="0" stopTime="0.00" timeLoss="1.99" rerouteNo="0" devices="tripinfo_f1395.0 routing_f1395.0 emissions_f1395.0" vType="car" speedFactor="0.85" vaporized="">
        <emissions CO_abs="226.43" CO2_abs="54822.50" HC_abs="1.51" PMx_abs="6.75" NOx_abs="19.36" fuel_abs="17772.86" electricity_abs="0.00"/>
    </tripinfo>
    <tripinfo id="f1578.0" depart="46.00" departLane="D4C4_1" departPos="162.55" departSpeed="7.37" departDelay="0.00" arrival="65.00" arrivalLane="C4C5_0" arrivalPos="186.40" arrivalSpeed="12.73" duration="19.00" routeLength="205.68" waitingTime="0.00" waitingCount="0" stopTime="0.00" timeLoss="2.78" rerouteNo="0" devices="tripinfo_f1578.0 routing_f1578.0 emissions_f1578.0" vType="car" speedFactor="0.98" vaporized="">
        <emissions CO_abs="251.38" CO2_abs="49369.80" HC_abs="1.68" PMx_abs="5.16" NOx_abs="16.97" fuel_abs="16005.06" electricity_abs="0.00"/>
    </tripinfo>
    <tripinfo id="f113.0" depart="41.00" departLane="A4B4_0" departPos="157.26" departSpeed="12.60" departDelay="0.00" arrival="72.00" arrivalLane="B4B5_2" arrivalPos="186.40" arrivalSpeed="12.02" duration="31.00" routeLength="240.05" waitingTime="3.00" waitingCount="1" stopTime="0.00" timeLoss="10.65" rerouteNo="0" devices="tripinfo_f113.0 routing_f113.0 emissions_f113.0" vType="car" speedFactor="0.91" vaporized="">
        <emissions CO_abs="248.00" CO2_abs="69575.65" HC_abs="1.66" PMx_abs="5.87" NOx_abs="23.54" fuel_abs="22555.53" electricity_abs="0.00"/>
    </tripinfo>
    <tripinfo id="f1620.0" depart="12.00" departLane="E1D1_1" departPos="15.38" departSpeed="13.08" departDelay="0.00" arrival="89.00" arrivalLane="B1B0_2" arrivalPos="186.40" arrivalSpeed="12.97" duration="77.00" routeLength="768.33" waitingTime="9.00" waitingCount="1" stopTime="0.00" timeLoss="17.34" rerouteNo="1" devices="tripinfo_f1620.0 routing_f1620.0 emissions_f1620.0" vType="car" speedFactor="0.94" vaporized="">
        <emissions CO_abs="625.51" CO2_abs="155311.89" HC_abs="4.22" PMx_abs="17.59" NOx_abs="54.96" fuel_abs="50350.39" electricity_abs="0.00"/>
    </tripinfo>
    <tripinfo id="f63.0" depart="44.00" departLane="A1B1_2" departPos="21.37" departSpeed="13.51" departDelay="0.00" arrival="91.00" arrivalLane="C1C0_0" arrivalPos="186.40" arrivalSpeed="13.40" duration="47.00" routeLength="560.46" waitingTime="0.00" waitingCount="0" stopTime="0.00" timeLoss="4.28" rerouteNo="1" devices="tripinfo_f63.0 routing_f63.0 emissions_f63.0" vType="car" speedFactor="0.97" vaporized="">
        <emissions CO_abs="542.22" CO2_abs="101969.16" HC_abs="3.64" PMx_abs="12.16" NOx_abs="35.79" fuel_abs="33057.16" electricity_abs="0.00"/>
    </tripinfo>
    <tripinfo id="f211.0" depart="1.00" departLane="F2E2_2" departPos="101.64" departSpeed="13.90" departDelay="0.00" arrival="106.00" arrivalLane="E1E0_0" arrivalPos="186.40" arrivalSpeed="13.20" duration="105.00" routeLength="495.67" waitingTime="53.00" waitingCount="2" stopTime="0.00" timeLoss="68.47" rerouteNo="1" devices="tripinfo_f211.0 routing_f211.0 emissions_f211.0" vType="car" speedFactor="1.01" vaporized="">
        <emissions CO_abs="592.27" CO2_abs="210549.85" HC_abs="3.96" PMx_abs="12.01" NOx_abs="76.45" fuel_abs="68258.03" electricity_abs="0.00"/>
    </tripinfo>
    <tripinfo id="f2509.0" depart="19.00" departLane="C2C3_2" departPos="72.09" departSpeed="13.82" departDelay="0.00" arrival="106.00" arrivalLane="D2D1_1" arrivalPos="172.80" arrivalSpeed="13.33" duration="87.00" routeLength="664.37" waitingTime="19.00" waitingCount="2" stopTime="0.00" timeLoss="36.64" rerouteNo="1" devices="tripinfo_f2509.0 routing_f2509.0 emissions_f2509.0" vType="car" speedFactor="0.99" vaporized="">
        <emissions CO_abs="866.10" CO2_abs="200204.51" HC_abs="5.77" PMx_abs="14.87" NOx_abs="69.39" fuel_abs="64903.70" electricity_abs="0.00"/>
    </tripinfo>
    <tripinfo id="f1740.0" depart="77.00" departLane="E3E4_0" departPos="91.68" departSpeed="13.90" departDelay="1.00" arrival="107.00" arrivalLane="E4E5_0" arrivalPos="186.40" arrivalSpeed="12.97" duration="30.00" routeLength="294.72" waitingTime="1.00" waitingCount="1" stopTime="0.00" timeLoss="8.45" rerouteNo="0" devices="tripinfo_f1740.0 routing_f1740.0 emissions_f1740.0" vType="car" speedFactor="1.01" vaporized="">
        <emissions CO_abs="356.14" CO2_abs="72184.82" HC_abs="2.38" PMx_abs="6.40" NOx_abs="24.24" fuel_abs="23401.29" electricity_abs="0.00"/>
    </tripinfo>
    <tripinfo id="f2500.0" depart="86.00" departLane="C2C3_0" departPos="73.30" departSpeed="13.38" departDelay="0.00" arrival="110.00" arrivalLane="C3C4_1" arrivalPos="172.80" arrivalSpeed="12.98" duration="24.00" routeLength="299.50" waitingTime="0.00" waitingCount="0" stopTime="0.00" timeLoss="0.88" rerouteNo="0" devices="tripinfo_f2500.0 routing_f2500.0 emissions_f2500.0" vType="car" speedFactor="0.96" vaporized="">
        <emissions CO_abs="217.73" CO2_abs="46067.05" HC_abs="1.48" PMx_abs="7.19" NOx_abs="16.78" fuel_abs="14934.49" electricity_abs="0.00"/>
    </tripinfo>
    <tripinfo id="f96.0" depart="69.00" departLane="A3B3_2" departPos="46.49" departSpeed="13.90" departDelay="0.00" arrival="114.00" arrivalLane="B2A2_0" arrivalPos="186.40" arrivalSpeed="13.83" duration="45.00" routeLength="517.17" waitingTime="0.00" waitingCount="0" stopTime="0.00" timeLoss="5.92" rerouteNo="1" devices="tripinfo_f96.0 routing_f96.0 emissions_f96.0" vType="car" speedFactor="1.06" vaporized="">
        <emissions CO_abs="615.04" CO2_abs="110459.96" HC_abs="4.11" PMx_abs="12.08" NOx_abs="38.50" fuel_abs="35809.72" electricity_abs="0.00"/>
    </tripinfo>
    <tripinfo id="f83.0" depart="54.00" departLane="A2B2_2" departPos="5.87" departSpeed="13.90" departDelay="0.00" arrival="121.00" arrivalLane="B4B5_1" arrivalPos="186.40" arrivalSpeed="13.79" duration="67.00" routeLength="791.44" waitingTime="0.00" waitingCount="0" stopTime="0.00" timeLoss="8.93" rerouteNo="1" devices="tripinfo_f83.0 routing_f83.0 emissions_f83.0" vType="car" speedFactor="1.01" vaporized="">
        <emissions CO_abs="819.09" CO2_abs="155540.14" HC_abs="5.50" PMx_abs="18.45" NOx_abs="54.66" fuel_abs="50424.15" electricity_abs="0.00"/>
    </tripinfo>
    <tripinfo id="f3069.0" depart="10.00" departLane="D2C2_0" departPos="21.67" departSpeed="13.77" departDelay="0.00" arrival="124.00" arrivalLane="C4D4_1" arrivalPos="172.80" arrivalSpeed="10.68" duration="114.00" routeLength="714.79" waitingTime="46.00" waitingCount="1" stopTime="0.00" timeLoss="60.31" rerouteNo="1" devices="tripinfo_f3069.0 routing_f3069.0 emissions_f3069.0" vType="car" speedFactor="0.99" vaporized="">
        <emissions CO_abs="905.28" CO2_abs="241629.05" HC_abs="6.03" PMx_abs="16.00" NOx_abs="86.49" fuel_abs="78333.35" electricity_abs="0.00"/>
    </tripinfo>
    <tripinfo id="f1659.0" depart="51.00" departLane="E2D2_0" departPos="39.92" departSpeed="12.39" departDelay="0.00" arrival="125.00" arrivalLane="D4D5_0" arrivalPos="186.40" arrivalSpeed="11.39" duration="74.00" routeLength="728.31" waitingTime="2.00" waitingCount="1" stopTime="0.00" timeLoss="13.55" rerouteNo="1" devices="tripinfo_f1659.0 routing_f1659.0 emissions_f1659.0" vType="car" speedFactor="0.89" vaporized="">
        <emissions CO_abs="655.31" CO2_abs="162496.24" HC_abs="4.39" PMx_abs="17.06" NOx_abs="55.53" fuel_abs="52679.29" electricity_abs="0.00"/>
    </tripinfo>
    <tripinfo id="f1289.0" depart="92.00" departLane="C3B3_0" departPos="134.83" departSpeed="12.70" departDelay="0.00" arrival="131.00" arrivalLane="B4B5_0" arrivalPos="186.40" arrivalSpeed="12.61" duration="39.00" routeLength="433.40" waitingTime="0.00" waitingCount="0" stopTime="0.00" timeLoss="4.18" rerouteNo="1" devices="tripinfo_f1289.0 routing_f1289.0 emissions_f1289.0" vType="car" speedFactor="0.91" vaporized="">
        <emissions CO_abs="360.18" CO2_abs="84131.05" HC_abs="2.42" PMx_abs="10.32" NOx_abs="29.45" fuel_abs="27274.34" electricity_abs="0.00"/>
    </tripinfo>
    <tripinfo id="f32.0" depart="42.00" departLane="C0C1_1" departPos="28.58" departSpeed="12.70" departDelay="0.00" arrival="136.00" arrivalLane="D1D0_0" arrivalPos="186.40" arrivalSpeed="12.65" duration="94.00" routeLength="535.08" waitingTime="30.00" waitingCount="3" stopTime="0.00" timeLoss="49.52" rerouteNo="1" devices="tripinfo_f32.0 routing_f32.0 emissions_f32.0" vType="car" speedFactor="0.91" vaporized="">
        <emissions CO_abs="502.51" CO2_abs="177248.37" HC_abs="3.35" PMx_abs="11.79" NOx_abs="63.15" fuel_abs="57461.93" electricity_abs="0.00"/>
    </tripinfo>
    <tripinfo id="f67.0" depart="58.00" departLane="A1B1_0" departPos="66.55" departSpeed="13.33" departDelay="0.00" arrival="139.00" arrivalLane="B4A4_2" arrivalPos="186.40" arrivalSpeed="13.29" duration="81.00" routeLength="928.07" waitingTime="1.00" waitingCount="1" stopTime="0.00" timeLoss="9.56" rerouteNo="1" devices="tripinfo_f67.0 routing_f67.0 emissions_f67.0" vType="car" speedFactor="0.96" vaporized="">
        <emissions CO_abs="939.12" CO2_abs="185704.59" HC_abs="6.28" PMx_abs="21.62" NOx_abs="65.06" fuel_abs="60203.11" electricity_abs="0.00"/>
    </tripinfo>
    <tripinfo id="f110.0" depart="10.00" departLane="A4B4_2" departPos="29.66" departSpeed="13.90" departDelay="0.00" arrival="140.00" arrivalLane="B1A1_0" arrivalPos="186.40" arrivalSpeed="13.09" duration="130.00" routeLength="934.00" waitingTime="39.00" waitingCount="2" stopTime="0.00" timeLoss="61.35" rerouteNo="1" devices="tripinfo_f110.0 routing_f110.0 emissions_f110.0" vType="car" speedFactor="1.05" vaporized="">
        <emissions CO_abs="1082.12" CO2_abs="279752.82" HC_abs="7.24" PMx_abs="21.37" NOx_abs="99.26" fuel_abs="90692.57" electricity_abs="0.00"/>
    </tripinfo>
    <tripinfo id="f1174.0" depart="40.00" departLane="C1B1_1" departPos="67.99" departSpeed="13.02" departDelay="0.00" arrival="140.00" arrivalLane="B2A2_2" arrivalPos="186.40" arrivalSpeed="12.60" duration="100.00" routeLength="497.55" waitingTime="50.00" waitingCount="1" stopTime="0.00" timeLoss="59.76" rerouteNo="1" devices="tripinfo_f1174.0 routing_f1174.0 emissions_f1174.0" vType="car" speedFactor="0.94" vaporized="">
        <emissions CO_abs="587.12" CO2_abs="194192.85" HC_abs="3.91" PMx_abs="10.53" NOx_abs="70.55" fuel_abs="62955.31" electricity_abs="0.00"/>
    </tripinfo>
    <tripinfo id="f225.0" depart="69.00" departLane="F2E2_0" departPos="131.34" departSpeed="1.16" departDelay="0.00" arrival="157.00" arrivalLane="E1F1_2" arrivalPos="186.40" arrivalSpeed="13.90" duration="88.00" routeLength="463.28" waitingTime="43.00" waitingCount="1" stopTime="0.00" timeLoss="53.72" rerouteNo="1" devices="tripinfo_f225.0 routing_f225.0 emissions_f225.0" vType="car" speedFactor="1.03" vaporized="">
        <emissions CO_abs="639.43" CO2_abs="190594.20" HC_abs="4.25" PMx_abs="10.57" NOx_abs="68.12" fuel_abs="61788.41" electricity_abs="0.00"/>
    </tripinfo>
    <tripinfo id="f1537.0" depart="20.00" departLane="D3D4_1" departPos="85.14" departSpeed="13.90" departDelay="0.00" arrival="158.00" arrivalLane="E1E0_0" arrivalPos="186.40" arrivalSpeed="13.61" duration="138.00" routeLength="1064.92" waitingTime="37.00" waitingCount="2" stopTime="0.00" timeLoss="59.55" rerouteNo="1" devices="tripinfo_f1537.0 routing_f1537.0 emissions_f1537.0" vType="car" speedFactor="1.10" vaporized="">
        <emissions CO_abs="1445.53" CO2_abs="312937.13" HC_abs="9.62" PMx_abs="22.90" NOx_abs="110.63" fuel_abs="101450.23" electricity_abs="0.00"/>
    </tripinfo>
    <tripinfo id="f181.0" depart="48.00" departLane="F4E4_1" departPos="22.26" departSpeed="13.90" departDelay="0.00" arrival="158.00" arrivalLane="E1E0_1" arrivalPos="186.40" arrivalSpeed="13.27" duration="110.00" routeLength="975.05" waitingTime="19.00" waitingCount="2" stopTime="0.00" timeLoss="38.91" rerouteNo="1" devices="tripinfo_f181.0 routing_f181.0 emissions_f181.0" vType="car" speedFactor="1.02" vaporized="">
        <emissions CO_abs="1138.07" CO2_abs="253878.15" HC_abs="7.61" PMx_abs="22.27" NOx_abs="88.02" fuel_abs="82304.01" electricity_abs="0.00"/>
    </tripinfo>
    <tripinfo id="f177.0" depart="154.00" departLane="E5E4_2" departPos="148.86" departSpeed="13.90" departDelay="0.00" arrival="174.00" arrivalLane="E4F4_2" arrivalPos="186.40" arrivalSpeed="13.60" duration="20.00" routeLength="248.45" waitingTime="0.00" waitingCount="0" stopTime="0.00" timeLoss="1.36" rerouteNo="0" devices="tripinfo_f177.0 routing_f177.0 emissions_f177.0" vType="car" speedFactor="1.04" vaporized="">
        <emissions CO_abs="291.58" CO2_abs="45498.60" HC_abs="1.95" PMx_abs="5.18" NOx_abs="16.25" fuel_abs="14750.07" electricity_abs="0.00"/>
    </tripinfo>
    <tripinfo id="f812.0" depart="1.00" departLane="E5E4_1" departPos="86.89" departSpeed="13.90" departDelay="0.00" arrival="177.00" arrivalLane="E3D3_0" arrivalPos="172.80" arrivalSpeed="4.66" duration="176.00" routeLength="481.34" waitingTime="126.00" waitingCount="2" stopTime="0.00" timeLoss="140.86" rerouteNo="1" devices="tripinfo_f812.0 routing_f812.0 emissions_f812.0" vType="car" speedFactor="1.08" vaporized="">
        <emissions CO_abs="579.01" CO2_abs="312650.02" HC_abs="3.87" PMx_abs="10.91" NOx_abs="117.72" fuel_abs="101358.43" electricity_abs="0.00"/>
    </tripinfo>
    <tripinfo id="f180.0" depart="17.00" departLane="E5E4_1" departPos="33.36" departSpeed="12.12" departDelay="0.00" arrival="178.00" arrivalLane="E1F1_2" arrivalPos="186.40" arrivalSpeed="11.93" duration="161.00" routeLength="963.95" waitingTime="65.00" waitingCount="2" stopTime="0.00" timeLoss="80.02" rerouteNo="1" devices="tripinfo_f180.0 routing_f180.0 emissions_f180.0" vType="car" speedFactor="0.87" vaporized="">
        <emissions CO_abs="779.22" CO2_abs="304450.28" HC_abs="5.24" PMx_abs="23.27" NOx_abs="110.68" fuel_abs="98699.77" electricity_abs="0.00"/>
    </tripinfo>
    <tripinfo id="f3305.0" depart="11.00" departLane="D3D2_2" departPos="38.56" departSpeed="12.87" departDelay="0.00" arrival="179.00" arrivalLane="D1C1_0" arrivalPos="172.80" arrivalSpeed="2.78" duration="168.00" routeLength="516.07" waitingTime="111.00" waitingCount="2" stopTime="0.00" timeLoss="126.67" rerouteNo="1" devices="tripinfo_f3305.0 routing_f3305.0 emissions_f3305.0" vType="car" speedFactor="0.93" vaporized="">
        <emissions CO_abs="520.17" CO2_abs="289392.34" HC_abs="3.47" PMx_abs="10.89" NOx_abs="109.30" fuel_abs="93818.41" electricity_abs="0.00"/>
    </tripinfo>
    <tripinfo id="f160.0" depart="129.00" departLane="D5D4_0" departPos="161.57" departSpeed="9.94" departDelay="0.00" arrival="181.00" arrivalLane="C4C5_0" arrivalPos="186.40" arrivalSpeed="11.19" duration="52.00" routeLength="402.09" waitingTime="6.00" waitingCount="1" stopTime="0.00" timeLoss="15.07" rerouteNo="1" devices="tripinfo_f160.0 routing_f160.0 emissions_f160.0" vType="car" speedFactor="0.84" vaporized="">
        <emissions CO_abs="396.59" CO2_abs="115711.30" HC_abs="2.64" PMx_abs="9.76" NOx_abs="39.31" fuel_abs="37512.17" electricity_abs="0.00"/>
    </tripinfo>
    <tripinfo id="f160.1" depart="143.00" departLane="D5D4_0" departPos="182.47" departSpeed="3.93" departDelay="0.00" arrival="183.00" arrivalLane="C4C5_0" arrivalPos="186.40" arrivalSpeed="13.54" duration="40.00" routeLength="381.19" waitingTime="0.00" waitingCount="0" stopTime="0.00" timeLoss="10.60" rerouteNo="1" devices="tripinfo_f160.1 routing_f160.1 emissions_f160.1" vType="car" speedFactor="1.01" vaporized="">
        <emissions CO_abs="510.82" CO2_abs="107719.10" HC_abs="3.40" PMx_abs="9.30" NOx_abs="36.22" fuel_abs="34921.07" electricity_abs="0.00"/>
    </tripinfo>
    <tripinfo id="f911.0" depart="88.00" departLane="F3E3_2" departPos="114.22" departSpeed="13.90" departDelay="0.00" arrival="186.00" arrivalLane="E4D4_1" arrivalPos="172.80" arrivalSpeed="5.95" duration="98.00" routeLength="451.32" waitingTime="44.00" waitingCount="2" stopTime="0.00" timeLoss="64.77" rerouteNo="1" devices="tripinfo_f911.0 routing_f911.0 emissions_f911.0" vType="car" speedFactor="1.08" vaporized="">
        <emissions CO_abs="734.19" CO2_abs="216794.23" HC_abs="4.86" PMx_abs="10.12" NOx_abs="75.69" fuel_abs="70281.95" electricity_abs="0.00"/>
    </tripinfo>
    <tripinfo id="f142.0" depart="127.00" departLane="C5C4_0" departPos="104.97" departSpeed="13.83" departDelay="0.00" arrival="190.00" arrivalLane="B3A3_0" arrivalPos="186.40" arrivalSpeed="13.71" duration="63.00" routeLength="676.86" waitingTime="2.00" waitingCount="1" stopTime="0.00" timeLoss="13.37" rerouteNo="1" devices="tripinfo_f142.0 routing_f142.0 emissions_f142.0" vType="car" speedFactor="1.00" vaporized="">
        <emissions CO_abs="812.09" CO2_abs="161115.23" HC_abs="5.43" PMx_abs="16.54" NOx_abs="54.91" fuel_abs="52231.42" electricity_abs="0.00"/>
    </tripinfo>
    <tripinfo id="f1510.0" depart="47.00" departLane="D3C3_0" departPos="69.69" departSpeed="13.90" departDelay="0.00" arrival="193.00" arrivalLane="B2A2_0" arrivalPos="186.40" arrivalSpeed="13.71" duration="146.00" routeLength="695.85" waitingTime="79.00" waitingCount="2" stopTime="0.00" timeLoss="94.54" rerouteNo="1" devices="tripinfo_f1510.0 routing_f1510.0 emissions_f1510.0" vType="car" speedFactor="1.09" vaporized="">
        <emissions CO_abs="918.72" CO2_abs="296489.27" HC_abs="6.12" PMx_abs="16.04" NOx_abs="107.41" fuel_abs="96118.59" electricity_abs="0.00"/>
    </tripinfo>
    <tripinfo id="f340.0" depart="50.00" departLane="C0C1_1" departPos="20.44" departSpeed="13.90" departDelay="0.00" arrival="193.00" arrivalLane="B2B3_0" arrivalPos="172.80" arrivalSpeed="13.23" duration="143.00" routeLength="745.10" waitingTime="58.00" waitingCount="2" stopTime="0.00" timeLoss="87.99" rerouteNo="1" devices="tripinfo_f340.0 routing_f340.0 emissions_f340.0" vType="car" speedFactor="1.04" vaporized="">
        <emissions CO_abs="943.86" CO2_abs="296817.12" HC_abs="6.29" PMx_abs="17.30" NOx_abs="105.31" fuel_abs="96224.65" electricity_abs="0.00"/>
    </tripinfo>
    <tripinfo id="f1656.0" depart="51.00" departLane="E2D2_2" departPos="38.35" departSpeed="13.90" departDelay="0.00" arrival="193.00" arrivalLane="B4A4_0" arrivalPos="186.40" arrivalSpeed="13.05" duration="142.00" routeLength="1106.33" waitingTime="39.00" waitingCount="1" stopTime="0.00" timeLoss="59.89" rerouteNo="1" devices="tripinfo_f1656.0 routing_f1656.0 emissions_f1656.0" vType="car" speedFactor="1.02" vaporized="">
        <emissions CO_abs="1399.60" CO2_abs="328141.49" HC_abs="9.34" PMx_abs="26.04" NOx_abs="115.05" fuel_abs="106379.41" electricity_abs="0.00"/>
    </tripinfo>
    <tripinfo id="f1549.0" depart="76.00" departLane="D3D4_0" departPos="73.07" departSpeed="13.90" departDelay="0.00" arrival="193.00" arrivalLane="E4F4_0" arrivalPos="186.40" arrivalSpeed="13.02" duration="117.00" routeLength="495.16" waitingTime="72.00" waitingCount="1" stopTime="0.00" timeLoss="80.78" rerouteNo="1" devices="tripinfo_f1549.0 routing_f1549.0 emissions_f1549.0" vType="car" speedFactor="1.23" vaporized="">
        <emissions CO_abs="595.11" CO2_abs="222934.47" HC_abs="3.98" PMx_abs="11.55" NOx_abs="82.62" fuel_abs="72273.24" electricity_abs="0.00"/>
    </tripinfo>
    <tripinfo id="f144.0" depart="147.00" departLane="C5C4_1" departPos="24.62" departSpeed="13.90" departDelay="0.00" arrival="193.00" arrivalLane="B4B5_0" arrivalPos="186.40" arrivalSpeed="13.53" duration="46.00" routeLength="539.04" waitingTime="0.00" waitingCount="0" stopTime="0.00" timeLoss="5.89" rerouteNo="1" devices="tripinfo_f144.0 routing_f144.0 emissions_f144.0" vType="car" speedFactor="1.11" vaporized="">
        <emissions CO_abs="653.83" CO2_abs="115204.29" HC_abs="4.37" PMx_abs="12.39" NOx_abs="39.84" fuel_abs="37347.73" electricity_abs="0.00"/>
    </tripinfo>
    <tripinfo id="f1010.0" depart="47.00" departLane="B1B2_1" departPos="98.25" departSpeed="13.90" departDelay="0.00" arrival="194.00" arrivalLane="D1D0_0" arrivalPos="186.40" arrivalSpeed="13.82" duration="147.00" routeLength="830.95" waitingTime="63.00" waitingCount="2" stopTime="0.00" timeLoss="84.44" rerouteNo="1" devices="tripinfo_f1010.0 routing_f1010.0 emissions_f1010.0" vType="car" speedFactor="1.01" vaporized="">
        <emissions CO_abs="1066.34" CO2_abs="307873.84" HC_abs="7.10" PMx_abs="18.33" NOx_abs="110.09" fuel_abs="99809.20" electricity_abs="0.00"/>
    </tripinfo>
    <tripinfo id="f279.0" depart="54.00" departLane="E0E1_2" departPos="37.64" departSpeed="12.59" departDelay="0.00" arrival="194.00" arrivalLane="E1D1_1" arrivalPos="172.80" arrivalSpeed="10.12" duration="140.00" routeLength="346.07" waitingTime="86.00" waitingCount="3" stopTime="0.00" timeLoss="111.41" rerouteNo="0" devices="tripinfo_f279.0 routing_f279.0 emissions_f279.0" vType="car" speedFactor="0.91" vaporized="">
        <emissions CO_abs="370.36" CO2_abs="247061.70" HC_abs="2.47" PMx_abs="7.87" NOx_abs="90.98" fuel_abs="80094.95" electricity_abs="0.00"/>
    </tripinfo>
    <tripinfo id="f586.0" depart="72.00" departLane="A4B4_2" departPos="126.57" departSpeed="13.90" departDelay="0.00" arrival="194.00" arrivalLane="B4C4_1" arrivalPos="172.80" arrivalSpeed="13.00" duration="122.00" routeLength="259.83" waitingTime="95.00" waitingCount="1" stopTime="0.00" timeLoss="102.62" rerouteNo="0" devices="tripinfo_f586.0 routing_f586.0 emissions_f586.0" vType="car" speedFactor="1.01" vaporized="">
        <emissions CO_abs="387.80" CO2_abs="215907.75" HC_abs="2.58" PMx_abs="5.66" NOx_abs="82.05" fuel_abs="69995.49" electricity_abs="0.00"/>
    </tripinfo>
    <tripinfo id="f804.0" depart="102.00" departLane="E5E4_0" departPos="25.68" departSpeed="13.90" departDelay="0.00" arrival="194.00" arrivalLane="D4C4_0" arrivalPos="172.80" arrivalSpeed="11.69" duration="92.00" routeLength="542.55" waitingTime="41.00" waitingCount="1" stopTime="0.00" timeLoss="52.60" rerouteNo="1" devices="tripinfo_f804.0 routing_f804.0 emissions_f804.0" vType="car" speedFactor="1.06" vaporized="">
        <emissions CO_abs="677.34" CO2_abs="189652.92" HC_abs="4.51" PMx_abs="11.57" NOx_abs="67.99" fuel_abs="61483.34" electricity_abs="0.00"/>
    </tripinfo>
    <tripinfo id="f1440.1" depart="107.00" departLane="D1E1_0" departPos="157.10" departSpeed="9.73" departDelay="0.00" arrival="194.00" arrivalLane="E1F1_0" arrivalPos="186.40" arrivalSpeed="12.70" duration="87.00" routeLength="229.30" waitingTime="61.00" waitingCount="1" stopTime="0.00" timeLoss="69.18" rerouteNo="0" devices="tripinfo_f1440.1 routing_f1440.1 emissions_f1440.1" vType="car" speedFactor="0.97" vaporized="">
        <emissions CO_abs="301.84" CO2_abs="156322.92" HC_abs="2.01" PMx_abs="5.05" NOx_abs="58.41" fuel_abs="50678.47" electricity_abs="0.00"/>
    </tripinfo>
    <tripinfo id="f1070.0" depart="0.00" departLane="B2B3_2" departPos="128.43" departSpeed="7.92" departDelay="0.00" arrival="195.00" arrivalLane="E3F3_0" arrivalPos="186.40" arrivalSpeed="12.18" duration="195.00" routeLength="839.80" waitingTime="111.00" waitingCount="2" stopTime="0.00" timeLoss="128.83" rerouteNo="1" devices="tripinfo_f1070.0 routing_f1070.0 emissions_f1070.0" vType="car" speedFactor="0.94" vaporized="">
        <emissions CO_abs="938.36" CO2_abs="372151.87" HC_abs="6.26" PMx_abs="19.43" NOx_abs="136.72" fuel_abs="120647.97" electricity_abs="0.00"/>
    </tripinfo>
    <tripinfo id="f221.0" depart="19.00" departLane="F2E2_2" departPos="114.66" departSpeed="13.90" departDelay="0.00" arrival="197.00" arrivalLane="D4D5_0" arrivalPos="186.40" arrivalSpeed="13.78" duration="178.00" routeLength="846.31" waitingTime="86.00" waitingCount="3" stopTime="0.00" timeLoss="114.65" rerouteNo="1" devices="tripinfo_f221.0 routing_f221.0 emissions_f221.0" vType="car" speedFactor="1.01" vaporized="">
        <emissions CO_abs="1135.95" CO2_abs="365103.59" HC_abs="7.57" PMx_abs="19.79" NOx_abs="131.47" fuel_abs="118362.54" electricity_abs="0.00"/>
    </tripinfo>
    <tripinfo id="f2748.0" depart="160.00" departLane="C3D3_0" departPos="144.22" departSpeed="8.54" departDelay="0.00" arrival="198.00" arrivalLane="D3D2_1" arrivalPos="172.80" arrivalSpeed="11.63" duration="38.00" routeLength="210.41" waitingTime="12.00" waitingCount="1" stopTime="0.00" timeLoss="21.76" rerouteNo="0" devices="tripinfo_f2748.0 routing_f2748.0 emissions_f2748.0" vType="car" speedFactor="1.21" vaporized="">
        <emissions CO_abs="357.15" CO2_abs="92494.28" HC_abs="2.37" PMx_abs="5.44" NOx_abs="31.97" fuel_abs="29985.39" electricity_abs="0.00"/>
    </tripinfo>
    <tripinfo id="f230.0" depart="14.00" departLane="F1E1_2" departPos="57.37" departSpeed="13.90" departDelay="0.00" arrival="209.00" arrivalLane="B1A1_0" arrivalPos="186.40" arrivalSpeed="13.08" duration="195.00" routeLength="942.63" waitingTime="117.00" waitingCount="1" stopTime="0.00" timeLoss="126.32" rerouteNo="1" devices="tripinfo_f230.0 routing_f230.0 emissions_f230.0" vType="car" speedFactor="1.02" vaporized="">
        <emissions CO_abs="855.52" CO2_abs="343218.87" HC_abs="5.76" PMx_abs="20.98" NOx_abs="129.80" fuel_abs="111268.62" electricity_abs="0.00"/>
    </tripinfo>
    <tripinfo id="f515.0" depart="48.00" departLane="A2B2_1" departPos="1.37" departSpeed="13.43" departDelay="0.00" arrival="209.00" arrivalLane="D3E3_0" arrivalPos="172.80" arrivalSpeed="13.06" duration="161.00" routeLength="964.17" waitingTime="75.00" waitingCount="1" stopTime="0.00" timeLoss="86.70" rerouteNo="1" devices="tripinfo_f515.0 routing_f515.0 emissions_f515.0" vType="car" speedFactor="0.97" vaporized="">
        <emissions CO_abs="958.14" CO2_abs="302152.57" HC_abs="6.41" PMx_abs="20.28" NOx_abs="110.92" fuel_abs="97954.87" electricity_abs="0.00"/>
    </tripinfo>
    <tripinfo id="f4047.0" depart="189.00" departLane="E0E1_0" departPos="143.30" departSpeed="13.90" departDelay="0.00" arrival="210.00" arrivalLane="E1F1_0" arrivalPos="186.40" arrivalSpeed="13.16" duration="21.00" routeLength="238.53" waitingTime="0.00" waitingCount="0" stopTime="0.00" timeLoss="3.06" rerouteNo="0" devices="tripinfo_f4047.0 routing_f4047.0 emissions_f4047.0" vType="car" speedFactor="1.11" vaporized="">
        <emissions CO_abs="278.10" CO2_abs="54638.73" HC_abs="1.86" PMx_abs="6.11" NOx_abs="18.76" fuel_abs="17713.19" electricity_abs="0.00"/>
    </tripinfo>
    <tripinfo id="f230.1" depart="21.00" departLane="F1E1_2" departPos="132.48" departSpeed="12.51" departDelay="0.00" arrival="211.00" arrivalLane="B1A1_0" arrivalPos="186.40" arrivalSpeed="12.35" duration="190.00" routeLength="867.52" waitingTime="112.00" waitingCount="1" stopTime="0.00" timeLoss="120.63" rerouteNo="1" devices="tripinfo_f230.1 routing_f230.1 emissions_f230.1" vType="car" speedFactor="0.90" vaporized="">
        <emissions CO_abs="670.38" CO2_abs="325093.75" HC_abs="4.51" PMx_abs="18.65" NOx_abs="122.84" fuel_abs="105392.64" electricity_abs="0.00"/>
    </tripinfo>
    <tripinfo id="f45.0" depart="125.00" departLane="C0C1_1" departPos="94.50" departSpeed="13.46" departDelay="0.00" arrival="211.00" arrivalLane="E1F1_1" arrivalPos="186.40" arrivalSpeed="13.19" duration="86.00" routeLength="687.33" waitingTime="21.00" waitingCount="1" stopTime="0.00" timeLoss="34.39" rerouteNo="1" devices="tripinfo_f45.0 routing_f45.0 emissions_f45.0" vType="car" speedFactor="0.97" vaporized="">
        <emissions CO_abs="753.30" CO2_abs="185588.28" HC_abs="5.02" PMx_abs="14.91" NOx_abs="64.86" fuel_abs="60165.49" electricity_abs="0.00"/>
    </tripinfo>