<?xml version="1.0" encoding="UTF-8"?>

<!-- generated on 2026-01-10T18:17:30.134940+01:00 by Eclipse SUMO GUI 1.25.0
<sumoConfiguration xmlns:xsi="http://www.w3.org/2001/XMLSchema-instance" xsi:noNamespaceSchemaLocation="http://sumo.dlr.de/xsd/sumoConfiguration.xsd">

    <input>
        <net-file value="ff.net.xml"/>
        <route-files value="ff_heterogeneous.rou.xml"/>
        <additional-files value="corridor.add.xml"/>
    </input>

    <output>
        <summary-output value="results_summary.xml"/>
        <tripinfo-output value="results_tripinfo.xml"/>
    </output>

    <time>
        <begin value="0"/>
        <end value="3600"/>
    </time>

    <traci_server>
        <remote-port value="63204"/>
    </traci_server>

    <gui_only>
        <quit-on-end value="true"/>
        <start value="true"/>
    </gui_only>

</sumoConfiguration>
-->

<tripinfos xmlns:xsi="http://www.w3.org/2001/XMLSchema-instance" xsi:noNamespaceSchemaLocation="http://sumo.dlr.de/xsd/tripinfo_file.xsd">
    <tripinfo id="f1440.0" depart="21.00" departLane="D1E1_0" departPos="99.13" departSpeed="13.90" departDelay="0.00" arrival="49.00" arrivalLane="E1F1_0" arrivalPos="186.40" arrivalSpeed="13.42" duration="28.00" routeLength="287.27" waitingTime="0.00" waitingCount="0" stopTime="0.00" timeLoss="6.42" rerouteNo="0" devices="tripinfo_f1440.0 routing_f1440.0" vType="car" speedFactor="1.03" vaporized=""/>
    <tripinfo id="f1.0" depart="10.00" departLane="E0E1_1" departPos="56.25" departSpeed="13.90" departDelay="0.00" arrival="53.00" arrivalLane="D1D0_2" arrivalPos="186.40" arrivalSpeed="13.64" duration="43.00" routeLength="538.37" waitingTime="0.00" waitingCount="0" stopTime="0.00" timeLoss="2.39" rerouteNo="1" devices="tripinfo_f1.0 routing_f1.0" vType="car" speedFactor="1.03" vaporized=""/>
    <tripinfo id="f812.0" depart="1.00" departLane="E5E4_1" departPos="86.89" departSpeed="13.90" departDelay="0.00" arrival="56.00" arrivalLane="E3D3_0" arrivalPos="172.80" arrivalSpeed="13.61" duration="55.00" routeLength="481.34" waitingTime="11.00" waitingCount="1" stopTime="0.00" timeLoss="19.95" rerouteNo="1" devices="tripinfo_f812.0 routing_f812.0" vType="car" speedFactor="1.08" vaporized=""/>
    <tripinfo id="f1395.0" depart="30.00" departLane="D1C1_2" departPos="67.51" departSpeed="11.81" departDelay="0.00" arrival="60.00" arrivalLane="C1C0_2" arrivalPos="186.40" arrivalSpeed="11.02" duration="30.00" routeLength="316.20" waitingTime="0.00" waitingCount="0" stopTime="0.00" timeLoss="1.85" rerouteNo="0" devices="tripinfo_f1395.0 routing_f1395.0" vType="car" speedFactor="0.85" vaporized=""/>
    <tripinfo id="f226.0" depart="22.00" departLane="F1E1_1" departPos="55.23" departSpeed="13.29" departDelay="0.00" arrival="65.00" arrivalLane="E1E0_2" arrivalPos="186.40" arrivalSpeed="12.33" duration="43.00" routeLength="342.08" waitingTime="10.00" waitingCount="1" stopTime="0.00" timeLoss="16.01" rerouteNo="0" devices="tripinfo_f226.0 routing_f226.0" vType="car" speedFactor="0.96" vaporized=""/>
    <tripinfo id="f1578.0" depart="46.00" departLane="D4C4_1" departPos="162.55" departSpeed="7.37" departDelay="0.00" arrival="65.00" arrivalLane="C4C5_0" arrivalPos="186.40" arrivalSpeed="13.06" duration="19.00" routeLength="205.68" waitingTime="0.00" waitingCount="0" stopTime="0.00" timeLoss="2.87" rerouteNo="0" devices="tripinfo_f1578.0 routing_f1578.0" vType="car" speedFactor="0.98" vaporized=""/>
    <tripinfo id="f113.0" depart="41.00" departLane="A4B4_0" departPos="157.26" departSpeed="12.60" departDelay="0.00" arrival="72.00" arrivalLane="B4B5_2" arrivalPos="186.40" arrivalSpeed="11.79" duration="31.00" routeLength="240.05" waitingTime="5.00" waitingCount="1" stopTime="0.00" timeLoss="10.55" rerouteNo="0" devices="tripinfo_f113.0 routing_f113.0" vType="car" speedFactor="0.91" vaporized=""/>
    <tripinfo id="f211.0" depart="1.00" departLane="F2E2_2" departPos="101.64" departSpeed="13.90" departDelay="0.00" arrival="80.00" arrivalLane="E1E0_0" arrivalPos="186.40" arrivalSpeed="13.53" duration="79.00" routeLength="495.67" waitingTime="34.00" waitingCount="1" stopTime="0.00" timeLoss="41.94" rerouteNo="1" devices="tripinfo_f211.0 routing_f211.0" vType="car" speedFactor="1.01" vaporized=""/>
    <tripinfo id="f1070.0" depart="0.00" departLane="B2B3_2" departPos="128.43" departSpeed="7.92" departDelay="0.00" arrival="87.00" arrivalLane="E3F3_1" arrivalPos="186.40" arrivalSpeed="12.39" duration="87.00" routeLength="839.80" waitingTime="9.00" waitingCount="1" stopTime="0.00" timeLoss="21.43" rerouteNo="1" devices="tripinfo_f1070.0 routing_f1070.0" vType="car" speedFactor="0.94" vaporized=""/>
    <tripinfo id="f1620.0" depart="12.00" departLane="E1D1_1" departPos="15.38" departSpeed="13.08" departDelay="0.00" arrival="89.00" arrivalLane="B1B0_2" arrivalPos="186.40" arrivalSpeed="12.89" duration="77.00" routeLength="768.33" waitingTime="9.00" waitingCount="1" stopTime="0.00" timeLoss="16.87" rerouteNo="1" devices="tripinfo_f1620.0 routing_f1620.0" vType="car" speedFactor="0.94" vaporized=""/>
    <tripinfo id="f63.0" depart="44.00" departLane="A1B1_2" departPos="21.37" departSpeed="13.51" departDelay="0.00" arrival="91.00" arrivalLane="C1C0_0" arrivalPos="186.40" arrivalSpeed="13.28" duration="47.00" routeLength="560.46" waitingTime="0.00" waitingCount="0" stopTime="0.00" timeLoss="4.30" rerouteNo="1" devices="tripinfo_f63.0 routing_f63.0" vType="car" speedFactor="0.97" vaporized=""/>
    <tripinfo id="f2509.0" depart="19.00" departLane="C2C3_2" departPos="72.09" departSpeed="13.82" departDelay="0.00" arrival="106.00" arrivalLane="D2D1_1" arrivalPos="172.80" arrivalSpeed="13.01" duration="87.00" routeLength="664.37" waitingTime="17.00" waitingCount="2" stopTime="0.00" timeLoss="36.62" rerouteNo="1" devices="tripinfo_f2509.0 routing_f2509.0" vType="car" speedFactor="0.99" vaporized=""/>
    <tripinfo id="f2500.0" depart="86.00" departLane="C2C3_2" departPos="91.35" departSpeed="13.38" departDelay="0.00" arrival="108.00" arrivalLane="C3C4_1" arrivalPos="172.80" arrivalSpeed="13.20" duration="22.00" routeLength="281.45" waitingTime="0.00" waitingCount="0" stopTime="0.00" timeLoss="0.85" rerouteNo="0" devices="tripinfo_f2500.0 routing_f2500.0" vType="car" speedFactor="0.96" vaporized=""/>
    <tripinfo id="f96.0" depart="69.00" departLane="A3B3_2" departPos="46.49" departSpeed="13.90" departDelay="0.00" arrival="113.00" arrivalLane="B2A2_0" arrivalPos="186.40" arrivalSpeed="13.73" duration="44.00" routeLength="517.17" waitingTime="0.00" waitingCount="0" stopTime="0.00" timeLoss="5.69" rerouteNo="1" devices="tripinfo_f96.0 routing_f96.0" vType="car" speedFactor="1.06" vaporized=""/>
    <tripinfo id="f1549.0" depart="76.00" departLane="D3D4_0" departPos="73.07" departSpeed="13.90" departDelay="0.00" arrival="116.00" arrivalLane="E4F4_0" arrivalPos="186.40" arrivalSpeed="12.91" duration="40.00" routeLength="495.16" waitingTime="0.00" waitingCount="0" stopTime="0.00" timeLoss="3.33" rerouteNo="1" devices="tripinfo_f1549.0 routing_f1549.0" vType="car" speedFactor="1.23" vaporized=""/>
    <tripinfo id="f83.0" depart="54.00" departLane="A2B2_2" departPos="5.87" departSpeed="13.90" departDelay="0.00" arrival="121.00" arrivalLane="B4B5_1" arrivalPos="186.40" arrivalSpeed="13.02" duration="67.00" routeLength="791.44" waitingTime="0.00" waitingCount="0" stopTime="0.00" timeLoss="8.84" rerouteNo="1" devices="tripinfo_f83.0 routing_f83.0" vType="car" speedFactor="1.01" vaporized=""/>
    <tripinfo id="f3069.0" depart="10.00" departLane="D2C2_0" departPos="21.67" departSpeed="13.77" departDelay="0.00" arrival="122.00" arrivalLane="C4D4_0" arrivalPos="172.80" arrivalSpeed="13.10" duration="112.00" routeLength="714.79" waitingTime="46.00" waitingCount="1" stopTime="0.00" timeLoss="58.93" rerouteNo="1" devices="tripinfo_f3069.0 routing_f3069.0" vType="car" speedFactor="0.99" vaporized=""/>
    <tripinfo id="f3305.0" depart="11.00" departLane="D3D2_2" departPos="38.56" departSpeed="12.87" departDelay="0.00" arrival="123.00" arrivalLane="D1C1_0" arrivalPos="172.80" arrivalSpeed="12.60" duration="112.00" routeLength="516.07" waitingTime="62.00" waitingCount="1" stopTime="0.00" timeLoss="71.27" rerouteNo="1" devices="tripinfo_f3305.0 routing_f3305.0" vType="car" speedFactor="0.93" vaporized=""/>
    <tripinfo id="f1659.0" depart="51.00" departLane="E2D2_0" departPos="39.92" departSpeed="12.39" departDelay="0.00" arrival="124.00" arrivalLane="D4D5_0" arrivalPos="186.40" arrivalSpeed="11.58" duration="73.00" routeLength="728.31" waitingTime="2.00" waitingCount="1" stopTime="0.00" timeLoss="13.08" rerouteNo="1" devices="tripinfo_f1659.0 routing_f1659.0" vType="car" speedFactor="0.89" vaporized=""/>
    <tripinfo id="f1289.0" depart="92.00" departLane="C3B3_1" departPos="150.82" departSpeed="11.83" departDelay="0.00" arrival="130.00" arrivalLane="B4B5_0" arrivalPos="186.40" arrivalSpeed="12.24" duration="38.00" routeLength="417.41" waitingTime="0.00" waitingCount="0" stopTime="0.00" timeLoss="3.32" rerouteNo="1" devices="tripinfo_f1289.0 routing_f1289.0" vType="car" speedFactor="0.91" vaporized=""/>
    <tripinfo id="f32.0" depart="42.00" departLane="C0C1_1" departPos="28.58" departSpeed="12.70" departDelay="0.00" arrival="132.00" arrivalLane="D1D0_0" arrivalPos="186.40" arrivalSpeed="12.28" duration="90.00" routeLength="535.08" waitingTime="33.00" waitingCount="1" stopTime="0.00" timeLoss="46.20" rerouteNo="1" devices="tripinfo_f32.0 routing_f32.0" vType="car" speedFactor="0.91" vaporized=""/>
    <tripinfo id="f11.0" depart="62.00" departLane="E0E1_2" departPos="94.37" departSpeed="13.90" departDelay="0.00" arrival="136.00" arrivalLane="E4E5_1" arrivalPos="186.40" arrivalSpeed="13.35" duration="74.00" routeLength="905.63" waitingTime="0.00" waitingCount="0" stopTime="0.00" timeLoss="8.63" rerouteNo="1" devices="tripinfo_f11.0 routing_f11.0" vType="car" speedFactor="1.10" vaporized=""/>
    <tripinfo id="f67.0" depart="58.00" departLane="A1B1_0" departPos="66.55" departSpeed="13.33" departDelay="0.00" arrival="139.00" arrivalLane="B4A4_2" arrivalPos="186.40" arrivalSpeed="12.75" duration="81.00" routeLength="928.07" waitingTime="0.00" waitingCount="0" stopTime="0.00" timeLoss="9.51" rerouteNo="1" devices="tripinfo_f67.0 routing_f67.0" vType="car" speedFactor="0.96" vaporized=""/>
    <tripinfo id="f110.0" depart="10.00" departLane="A4B4_2" departPos="29.66" departSpeed="13.90" departDelay="0.00" arrival="140.00" arrivalLane="B1A1_0" arrivalPos="186.40" arrivalSpeed="13.03" duration="130.00" routeLength="934.00" waitingTime="39.00" waitingCount="2" stopTime="0.00" timeLoss="61.36" rerouteNo="1" devices="tripinfo_f110.0 routing_f110.0" vType="car" speedFactor="1.05" vaporized=""/>
    <tripinfo id="f1174.0" depart="40.00" departLane="C1B1_1" departPos="67.99" departSpeed="13.02" departDelay="0.00" arrival="140.00" arrivalLane="B2A2_2" arrivalPos="186.40" arrivalSpeed="12.87" duration="100.00" routeLength="497.55" waitingTime="51.00" waitingCount="1" stopTime="0.00" timeLoss="59.63" rerouteNo="1" devices="tripinfo_f1174.0 routing_f1174.0" vType="car" speedFactor="0.94" vaporized=""/>
    <tripinfo id="f1740.0" depart="76.00" departLane="E3E4_2" departPos="168.41" departSpeed="1.33" departDelay="0.00" arrival="140.00" arrivalLane="E4E5_0" arrivalPos="186.40" arrivalSpeed="12.97" duration="64.00" routeLength="217.99" waitingTime="40.00" waitingCount="1" stopTime="0.00" timeLoss="47.72" rerouteNo="0" devices="tripinfo_f1740.0 routing_f1740.0" vType="car" speedFactor="1.01" vaporized=""/>
    <tripinfo id="f225.0" depart="69.00" departLane="F2E2_0" departPos="131.34" departSpeed="1.16" departDelay="0.00" arrival="154.00" arrivalLane="E1F1_2" arrivalPos="186.40" arrivalSpeed="13.12" duration="85.00" routeLength="463.28" waitingTime="40.00" waitingCount="1" stopTime="0.00" timeLoss="50.78" rerouteNo="1" devices="tripinfo_f225.0 routing_f225.0" vType="car" speedFactor="1.03" vaporized=""/>
    <tripinfo id="f29.0" depart="41.00" departLane="D0D1_0" departPos="146.14" departSpeed="12.26" departDelay="0.00" arrival="160.00" arrivalLane="E2F2_0" arrivalPos="186.40" arrivalSpeed="11.33" duration="119.00" routeLength="614.83" waitingTime="52.00" waitingCount="2" stopTime="0.00" timeLoss="66.05" rerouteNo="1" devices="tripinfo_f29.0 routing_f29.0" vType="car" speedFactor="0.88" vaporized=""/>
    <tripinfo id="f225.1" depart="107.00" departLane="F2E2_2" departPos="170.60" departSpeed="9.77" departDelay="0.00" arrival="164.00" arrivalLane="E1F1_2" arrivalPos="186.40" arrivalSpeed="12.17" duration="57.00" routeLength="424.02" waitingTime="13.00" waitingCount="1" stopTime="0.00" timeLoss="20.69" rerouteNo="1" devices="tripinfo_f225.1 routing_f225.1" vType="car" speedFactor="0.89" vaporized=""/>
    <tripinfo id="f1440.1" depart="107.00" departLane="D1E1_0" departPos="163.47" departSpeed="6.91" departDelay="0.00" arrival="170.00" arrivalLane="E1F1_0" arrivalPos="186.40" arrivalSpeed="12.54" duration="63.00" routeLength="222.93" waitingTime="38.00" waitingCount="1" stopTime="0.00" timeLoss="45.75" rerouteNo="0" devices="tripinfo_f1440.1 routing_f1440.1" vType="car" speedFactor="0.97" vaporized=""/>
    <tripinfo id="f796.0" depart="10.00" departLane="E5E4_0" departPos="61.76" departSpeed="13.90" departDelay="0.00" arrival="177.00" arrivalLane="D2C2_0" arrivalPos="172.80" arrivalSpeed="4.52" duration="167.00" routeLength="885.61" waitingTime="87.00" waitingCount="2" stopTime="0.00" timeLoss="101.99" rerouteNo="1" devices="tripinfo_f796.0 routing_f796.0" vType="car" speedFactor="1.12" vaporized=""/>
    <tripinfo id="f929.0" depart="50.00" departLane="F2E2_1" departPos="2.17" departSpeed="13.90" departDelay="0.00" arrival="178.00" arrivalLane="C2D2_1" arrivalPos="172.80" arrivalSpeed="6.05" duration="128.00" routeLength="1127.03" waitingTime="26.00" waitingCount="1" stopTime="0.00" timeLoss="43.39" rerouteNo="1" devices="tripinfo_f929.0 routing_f929.0" vType="car" speedFactor="1.01" vaporized=""/>
    <tripinfo id="f160.0" depart="129.00" departLane="D5D4_0" departPos="138.17" departSpeed="11.61" departDelay="0.00" arrival="181.00" arrivalLane="C4C5_0" arrivalPos="186.40" arrivalSpeed="11.11" duration="52.00" routeLength="425.49" waitingTime="2.00" waitingCount="1" stopTime="0.00" timeLoss="12.63" rerouteNo="1" devices="tripinfo_f160.0 routing_f160.0" vType="car" speedFactor="0.84" vaporized=""/>
    <tripinfo id="f144.0" depart="147.00" departLane="C5C4_1" departPos="121.38" departSpeed="13.90" departDelay="0.00" arrival="186.00" arrivalLane="B4B5_0" arrivalPos="186.40" arrivalSpeed="13.00" duration="39.00" routeLength="442.28" waitingTime="0.00" waitingCount="0" stopTime="0.00" timeLoss="6.33" rerouteNo="1" devices="tripinfo_f144.0 routing_f144.0" vType="car" speedFactor="1.11" vaporized=""/>
    <tripinfo id="f160.1" depart="143.00" departLane="D5D4_1" departPos="24.07" departSpeed="13.90" departDelay="0.00" arrival="189.00" arrivalLane="C4C5_0" arrivalPos="186.40" arrivalSpeed="13.14" duration="46.00" routeLength="539.59" waitingTime="0.00" waitingCount="0" stopTime="0.00" timeLoss="6.17" rerouteNo="1" devices="tripinfo_f160.1 routing_f160.1" vType="car" speedFactor="1.01" vaporized=""/>
    <tripinfo id="f1656.0" depart="51.00" departLane="E2D2_2" departPos="38.35" departSpeed="13.90" departDelay="0.00" arrival="192.00" arrivalLane="B4A4_0" arrivalPos="186.40" arrivalSpeed="13.47" duration="141.00" routeLength="1106.33" waitingTime="39.00" waitingCount="1" stopTime="0.00" timeLoss="58.81" rerouteNo="1" devices="tripinfo_f1656.0 routing_f1656.0" vType="car" speedFactor="1.02" vaporized=""/>
    <tripinfo id="f163.0" depart="50.00" departLane="D5D4_0" departPos="137.76" departSpeed="13.56" departDelay="0.00" arrival="193.00" arrivalLane="E3F3_2" arrivalPos="186.40" arrivalSpeed="13.25" duration="143.00" routeLength="638.69" waitingTime="82.00" waitingCount="2" stopTime="0.00" timeLoss="93.77" rerouteNo="1" devices="tripinfo_f163.0 routing_f163.0" vType="car" speedFactor="0.98" vaporized=""/>
    <tripinfo id="f340.0" depart="50.00" departLane="C0C1_1" departPos="20.44" departSpeed="13.90" departDelay="0.00" arrival="193.00" arrivalLane="B2B3_0" arrivalPos="172.80" arrivalSpeed="13.48" duration="143.00" routeLength="745.10" waitingTime="64.00" waitingCount="3" stopTime="0.00" timeLoss="88.10" rerouteNo="1" devices="tripinfo_f340.0 routing_f340.0" vType="car" speedFactor="1.04" vaporized=""/>
    <tripinfo id="f279.0" depart="54.00" departLane="E0E1_2" departPos="37.64" departSpeed="12.59" departDelay="0.00" arrival="193.00" arrivalLane="E1D1_1" arrivalPos="172.80" arrivalSpeed="5.35" duration="139.00" routeLength="346.07" waitingTime="90.00" waitingCount="3" stopTime="0.00" timeLoss="110.83" rerouteNo="0" devices="tripinfo_f279.0 routing_f279.0" vType="car" speedFactor="0.91" vaporized=""/>
    <tripinfo id="f1010.0" depart="47.00" departLane="B1B2_1" departPos="98.25" departSpeed="13.90" departDelay="0.00" arrival="194.00" arrivalLane="D1D0_0" arrivalPos="186.40" arrivalSpeed="13.34" duration="147.00" routeLength="830.95" waitingTime="62.00" waitingCount="2" stopTime="0.00" timeLoss="84.66" rerouteNo="1" devices="tripinfo_f1010.0 routing_f1010.0" vType="car" speedFactor="1.01" vaporized=""/>
    <tripinfo id="f1510.0" depart="47.00" departLane="D3C3_0" departPos="69.69" departSpeed="13.90" departDelay="0.00" arrival="194.00" arrivalLane="B2A2_0" arrivalPos="186.40" arrivalSpeed="13.89" duration="147.00" routeLength="695.85" waitingTime="79.00" waitingCount="2" stopTime="0.00" timeLoss="95.63" rerouteNo="1" devices="tripinfo_f1510.0 routing_f1510.0" vType="car" speedFactor="1.09" vaporized=""/>
    <tripinfo id="f911.0" depart="88.00" departLane="F3E3_2" departPos="22.31" departSpeed="13.90" departDelay="0.00" arrival="194.00" arrivalLane="E4D4_1" arrivalPos="172.80" arrivalSpeed="8.50" duration="106.00" routeLength="543.23" waitingTime="51.00" waitingCount="2" stopTime="0.00" timeLoss="65.42" rerouteNo="1" devices="tripinfo_f911.0 routing_f911.0" vType="car" speedFactor="1.08" vaporized=""/>
    <tripinfo id="f892.0" depart="87.00" departLane="F3E3_0" departPos="96.74" departSpeed="12.88" departDelay="0.00" arrival="196.00" arrivalLane="D2C2_1" arrivalPos="172.80" arrivalSpeed="12.31" duration="109.00" routeLength="668.80" waitingTime="38.00" waitingCount="2" stopTime="0.00" timeLoss="54.55" rerouteNo="1" devices="tripinfo_f892.0 routing_f892.0" vType="car" speedFactor="0.93" vaporized=""/>
    <tripinfo id="f804.0" depart="102.00" departLane="E5E4_0" departPos="157.05" departSpeed="13.90" departDelay="0.00" arrival="197.00" arrivalLane="D4C4_0" arrivalPos="172.80" arrivalSpeed="13.76" duration="95.00" routeLength="411.18" waitingTime="50.00" waitingCount="2" stopTime="0.00" timeLoss="64.94" rerouteNo="1" devices="tripinfo_f804.0 routing_f804.0" vType="car" speedFactor="1.06" vaporized=""/>
    <tripinfo id="f2748.0" depart="160.00" departLane="C3D3_1" departPos="95.27" departSpeed="13.90" departDelay="0.00" arrival="197.00" arrivalLane="D3D2_1" arrivalPos="172.80" arrivalSpeed="10.98" duration="37.00" routeLength="259.36" waitingTime="8.00" waitingCount="1" stopTime="0.00" timeLoss="17.31" rerouteNo="0" devices="tripinfo_f2748.0 routing_f2748.0" vType="car" speedFactor="1.21" vaporized=""/>
    <tripinfo id="f12.0" depart="121.00" departLane="E0E1_0" departPos="84.53" departSpeed="13.90" departDelay="0.00" arrival="198.00" arrivalLane="E4F4_0" arrivalPos="186.40" arrivalSpeed="13.15" duration="77.00" routeLength="897.30" waitingTime="1.00" waitingCount="1" stopTime="0.00" timeLoss="11.28" rerouteNo="1" devices="tripinfo_f12.0 routing_f12.0" vType="car" speedFactor="1.02" vaporized=""/>
    <tripinfo id="f1537.0" depart="20.00" departLane="D3D4_1" departPos="85.14" departSpeed="13.90" departDelay="0.00" arrival="199.00" arrivalLane="E1E0_1" arrivalPos="186.40" arrivalSpeed="13.45" duration="179.00" routeLength="1064.92" waitingTime="72.00" waitingCount="4" stopTime="0.00" timeLoss="101.24" rerouteNo="1" devices="tripinfo_f1537.0 routing_f1537.0" vType="car" speedFactor="1.10" vaporized=""/>
    <tripinfo id="f1798.0" depart="101.00" departLane="B1B2_1" departPos="143.88" departSpeed="13.90" departDelay="0.00" arrival="199.00" arrivalLane="C4C3_2" arrivalPos="172.80" arrivalSpeed="11.51" duration="98.00" routeLength="792.58" waitingTime="24.00" waitingCount="1" stopTime="0.00" timeLoss="39.18" rerouteNo="1" devices="tripinfo_f1798.0 routing_f1798.0" vType="car" speedFactor="1.03" vaporized=""/>
    <tripinfo id="f12.1" depart="126.00" departLane="E0E1_2" departPos="86.37" departSpeed="13.90" departDelay="0.00" arrival="200.00" arrivalLane="E4F4_0" arrivalPos="186.40" arrivalSpeed="13.39" duration="74.00" routeLength="895.46" waitingTime="0.00" waitingCount="0" stopTime="0.00" timeLoss="8.62" rerouteNo="1" devices="tripinfo_f12.1 routing_f12.1" vType="car" speedFactor="1.07" vaporized=""/>
    <tripinfo id="f211.1" depart="129.00" departLane="F2E2_1" departPos="94.50" departSpeed="13.90" departDelay="0.00" arrival="200.00" arrivalLane="E1E0_0" arrivalPos="186.40" arrivalSpeed="13.08" duration="71.00" routeLength="502.81" waitingTime="25.00" waitingCount="1" stopTime="0.00" timeLoss="33.59" rerouteNo="1" devices="tripinfo_f211.1 routing_f211.1" vType="car" speedFactor="1.06" vaporized=""/>
    <tripinfo id="f586.0" depart="72.00" departLane="A4B4_2" departPos="126.57" departSpeed="13.90" departDelay="0.00" arrival="201.00" arrivalLane="B4C4_1" arrivalPos="172.80" arrivalSpeed="5.74" duration="129.00" routeLength="259.83" waitingTime="94.00" waitingCount="2" stopTime="0.00" timeLoss="109.93" rerouteNo="0" devices="tripinfo_f586.0 routing_f586.0" vType="car" speedFactor="1.01" vaporized=""/>
    <tripinfo id="f221.0" depart="19.00" departLane="F2E2_2" departPos="114.66" departSpeed="13.90" departDelay="0.00" arrival="202.00" arrivalLane="D4D5_0" arrivalPos="186.40" arrivalSpeed="13.27" duration="183.00" routeLength="846.31" waitingTime="87.00" waitingCount="4" stopTime="0.00" timeLoss="120.20" rerouteNo="1" devices="tripinfo_f221.0 routing_f221.0" vType="car" speedFactor="1.01" vaporized=""/>
    <tripinfo id="f118.0" depart="38.00" departLane="A4B4_2" departPos="21.31" departSpeed="13.71" departDelay="0.00" arrival="209.00" arrivalLane="E3F3_0" arrivalPos="186.40" arrivalSpeed="13.41" duration="171.00" routeLength="1157.83" waitingTime="66.00" waitingCount="2" stopTime="0.00" timeLoss="85.28" rerouteNo="1" devices="tripinfo_f118.0 routing_f118.0" vType="car" speedFactor="0.99" vaporized=""/>
    <tripinfo id="f515.0" depart="48.00" departLane="A2B2_1" departPos="1.37" departSpeed="13.43" departDelay="0.00" arrival="209.00" arrivalLane="D3E3_1" arrivalPos="172.80" arrivalSpeed="12.78" duration="161.00" routeLength="964.17" waitingTime="75.00" waitingCount="1" stopTime="0.00" timeLoss="87.89" rerouteNo="1" devices="tripinfo_f515.0 routing_f515.0" vType="car" speedFactor="0.97" vaporized=""/>
    <tripinfo id="f103.0" depart="12.00" departLane="A3B3_1" departPos="44.99" departSpeed="12.20" departDelay="0.00" arrival="213.00" arrivalLane="E3F3_1" arrivalPos="186.40" arrivalSpeed="12.07" duration="201.00" routeLength="955.01" waitingTime="106.00" waitingCount="2" stopTime="0.00" timeLoss="121.79" rerouteNo="1" devices="tripinfo_f103.0 routing_f103.0" vType="car" speedFactor="0.88" vaporized=""/>
    <tripinfo id="f2612.0" depart="116.00" departLane="C3B3_0" departPos="123.76" departSpeed="13.90" departDelay="0.00" arrival="214.00" arrivalLane="D4E4_0" arrivalPos="172.80" arrivalSpeed="13.68" duration="98.00" routeLength="812.70" waitingTime="19.00" waitingCount="2" stopTime="0.00" timeLoss="37.19" rerouteNo="1" devices="tripinfo_f2612.0 routing_f2612.0" vType="car" speedFactor="1.06" vaporized=""/>
    <tripinfo id="f177.0" depart="154.00" departLane="E5E4_1" departPos="99.81" departSpeed="13.90" departDelay="0.00" arrival="214.00" arrivalLane="E4F4_2" arrivalPos="186.40" arrivalSpeed="13.32" duration="60.00" routeLength="297.50" waitingTime="31.00" waitingCount="1" stopTime="0.00" timeLoss="37.38" rerouteNo="0" devices="tripinfo_f177.0 routing_f177.0" vType="car" speedFactor="1.04" vaporized=""/>
    <tripinfo id="f180.0" depart="17.00" departLane="E5E4_1" departPos="33.36" departSpeed="12.12" departDelay="0.00" arrival="216.00" arrivalLane="E1F1_2" arrivalPos="186.40" arrivalSpeed="11.96" duration="199.00" routeLength="963.95" waitingTime="95.00" waitingCount="4" stopTime="0.00" timeLoss="118.12" rerouteNo="1" devices="tripinfo_f180.0 routing_f180.0" vType="car" speedFactor="0.87" vaporized=""/>
    <tripinfo id="f1562.0" depart="79.00" departLane="D3E3_2" departPos="161.63" departSpeed="7.84" departDelay="0.00" arrival="217.00" arrivalLane="C4C5_0" arrivalPos="186.40" arrivalSpeed="13.20" duration="138.00" routeLength="801.22" waitingTime="50.00" waitingCount="2" stopTime="0.00" timeLoss="78.92" rerouteNo="1" devices="tripinfo_f1562.0 routing_f1562.0" vType="car" speedFactor="1.11" vaporized=""/>
    <tripinfo id="f765.0" depart="119.00" departLane="D5D4_2" departPos="26.38" departSpeed="13.90" departDelay="0.00" arrival="219.00" arrivalLane="E3E2_0" arrivalPos="172.80" arrivalSpeed="13.83" duration="100.00" routeLength="739.16" waitingTime="18.00" waitingCount="2" stopTime="0.00" timeLoss="45.19" rerouteNo="1" devices="tripinfo_f765.0 routing_f765.0" vType="car" speedFactor="1.03" vaporized=""/>
    <tripinfo id="f899.0" depart="71.00" departLane="F3E3_1" departPos="111.10" departSpeed="13.90" departDelay="0.00" arrival="221.00" arrivalLane="D3E3_1" arrivalPos="172.80" arrivalSpeed="11.56" duration="150.00" routeLength="818.10" waitingTime="60.00" waitingCount="3" stopTime="0.00" timeLoss="88.83" rerouteNo="1" devices="tripinfo_f899.0 routing_f899.0" vType="car" speedFactor="1.12" vaporized=""/>
    <tripinfo id="f230.0" depart="14.00" departLane="F1E1_2" departPos="57.37" departSpeed="13.90" departDelay="0.00" arrival="223.00" arrivalLane="B1A1_0" arrivalPos="186.40" arrivalSpeed="13.70" duration="209.00" routeLength="942.63" waitingTime="126.00" waitingCount="2" stopTime="0.00" timeLoss="140.76" rerouteNo="1" devices="tripinfo_f230.0 routing_f230.0" vType="car" speedFactor="1.02" vaporized=""/>
    <tripinfo id="f766.0" depart="31.00" departLane="D5D4_1" departPos="110.48" departSpeed="13.90" departDelay="0.00" arrival="223.00" arrivalLane="E3E4_2" arrivalPos="172.80" arrivalSpeed="13.47" duration="192.00" routeLength="670.54" waitingTime="122.00" waitingCount="3" stopTime="0.00" timeLoss="142.92" rerouteNo="1" devices="tripinfo_f766.0 routing_f766.0" vType="car" speedFactor="1.10" vaporized=""/>
    <tripinfo id="f1558.0" depart="57.00" departLane="D3E3_0" departPos="127.76" departSpeed="13.90" departDelay="0.00" arrival="224.00" arrivalLane="B2A2_0" arrivalPos="186.40" arrivalSpeed="13.24" duration="167.00" routeLength="1022.30" waitingTime="72.00" waitingCount="2" stopTime="0.00" timeLoss="91.39" rerouteNo="1" devices="tripinfo_f1558.0 routing_f1558.0" vType="car" speedFactor="1.06" vaporized=""/>
    <tripinfo id="f174.1" depart="51.00" departLane="E5E4_1" departPos="42.94" departSpeed="13.90" departDelay="1.00" arrival="225.00" arrivalLane="B4B5_0" arrivalPos="186.40" arrivalSpeed="13.76" duration="174.00" routeLength="920.72" waitingTime="86.00" waitingCount="2" stopTime="0.00" timeLoss="105.60" rerouteNo="1" devices="tripinfo_f174.1 routing_f174.1" vType="car" speedFactor="1.00" vaporized=""/>
    <tripinfo id="f62.0" depart="60.00" departLane="A1B1_2" departPos="73.94" departSpeed="12.16" departDelay="0.00" arrival="225.00" arrivalLane="D1D0_0" arrivalPos="186.40" arrivalSpeed="13.65" duration="165.00" routeLength="707.88" waitingTime="101.00" waitingCount="1" stopTime="0.00" timeLoss="113.31" rerouteNo="1" devices="tripinfo_f62.0 routing_f62.0" vType="car" speedFactor="1.10" vaporized=""/>
    <tripinfo id="f1667.0" depart="103.00" departLane="E2E1_0" departPos="23.80" departSpeed="13.90" departDelay="0.00" arrival="226.00" arrivalLane="C1C0_2" arrivalPos="186.40" arrivalSpeed="13.12" duration="123.00" routeLength="741.74" waitingTime="44.00" waitingCount="3" stopTime="0.00" timeLoss="67.71" rerouteNo="1" devices="tripinfo_f1667.0 routing_f1667.0" vType="car" speedFactor="1.03" vaporized=""/>
    <tripinfo id="f1666.0" depart="123.00" departLane="E2E1_2" departPos="91.01" departSpeed="13.90" departDelay="0.00" arrival="226.00" arrivalLane="D1D0_2" arrivalPos="186.40" arrivalSpeed="13.09" duration="103.00" routeLength="474.53" waitingTime="58.00" waitingCount="1" stopTime="0.00" timeLoss="66.97" rerouteNo="1" devices="tripinfo_f1666.0 routing_f1666.0" vType="car" speedFactor="1.00" vaporized=""/>
    <tripinfo id="f174.0" depart="14.00" departLane="E5E4_1" departPos="174.29" departSpeed="8.30" departDelay="0.00" arrival="227.00" arrivalLane="B4B5_0" arrivalPos="186.40" arrivalSpeed="13.84" duration="213.00" routeLength="789.37" waitingTime="137.00" waitingCount="2" stopTime="0.00" timeLoss="154.76" rerouteNo="1" devices="tripinfo_f174.0 routing_f174.0" vType="car" speedFactor="1.16" vaporized=""/>
    <tripinfo id="f1920.0" depart="45.00" departLane="B2B3_1" departPos="33.75" departSpeed="13.90" departDelay="0.00" arrival="227.00" arrivalLane="B2B1_2" arrivalPos="172.80" arrivalSpeed="13.58" duration="182.00" routeLength="881.85" waitingTime="98.00" waitingCount="1" stopTime="0.00" timeLoss="116.30" rerouteNo="1" devices="tripinfo_f1920.0 routing_f1920.0" vType="car" speedFactor="1.06" vaporized=""/>
    <tripinfo id="f897.0" depart="112.00" departLane="F3E3_2" departPos="38.03" departSpeed="13.90" departDelay="0.00" arrival="227.00" arrivalLane="D3D2_2" arrivalPos="172.80" arrivalSpeed="13.51" duration="115.00" routeLength="545.68" waitingTime="60.00" waitingCount="2" stopTime="0.00" timeLoss="75.17" rerouteNo="1" devices="tripinfo_f897.0 routing_f897.0" vType="car" speedFactor="1.10" vaporized=""/>